material_id,pretty_formula,K_VRH,G_VRH,poisson_ratio
mp-11580,TiCrP,204.0,123.0,0.25
mp-1159,Zr2Fe,124.0,32.0,0.38
mp-11693,TePt,48.0,21.0,0.31
mp-1179,DyNi5,147.0,70.0,0.29
mp-11800,Co3Se4,95.0,44.0,0.3
mp-11822,Ca3GeN,55.0,36.0,0.23
mp-11836,ErSbPd,90.0,45.0,0.29
mp-11841,CeAg,57.0,30.0,0.27
mp-12004,Er2Al3Si2,88.0,64.0,0.21
mp-12055,LaCd2,45.0,24.0,0.28
mp-12072,UAu2,109.0,45.0,0.32
mp-12104,NbSi2,175.0,140.0,0.18
mp-12118,InCu2,92.0,13.0,0.43
mp-12549,BaAl9Ni2,79.0,46.0,0.26
mp-12620,NdSeF,80.0,43.0,0.27
mp-12661,Cd3In,52.0,-22.0,0.74
mp-12665,Be12Ag,113.0,32.0,0.37
mp-12710,PrZnPd,79.0,28.0,0.34
mp-12751,PuNi,79.0,17.0,0.4
mp-13141,HgTe,64.0,-2.0,0.52
mp-13155,Hf2Ag,111.0,53.0,0.29
mp-13200,LuCuSn,70.0,54.0,0.19
mp-13263,Ce2Mo2C3,137.0,81.0,0.25
mp-1361,IrSe2,106.0,54.0,0.28
mp-13925,Cs2NaYF6,1.0,21.0,-0.82
mp-1393,Sn4Au,51.0,11.0,0.4
mp-13948,Cs2HfF6,20.0,9.0,0.31
mp-14092,AlAgTe2,42.0,17.0,0.33
mp-1497,TaN,275.0,143.0,0.28
mp-15316,SrMgF4,55.0,30.0,0.27
mp-1547,NiS,124.0,58.0,0.3
mp-15779,Mg2SiNi3,127.0,74.0,0.26
mp-15795,LiDySe2,39.0,26.0,0.23
mp-1606,NbAu2,175.0,64.0,0.34
mp-1607,YbCu5,88.0,44.0,0.29
mp-16267,Dy2CdS4,62.0,23.0,0.34
mp-16297,Sc3SnC,102.0,82.0,0.18
mp-16506,Li3Al2,39.0,35.0,0.16
mp-16566,Cu2SnHgSe4,53.0,20.0,0.33
mp-16750,HoCuPb,72.0,46.0,0.24
mp-1688,ErAs,79.0,54.0,0.22
mp-1702,LaRh2,135.0,44.0,0.35
mp-1708,YTe,60.0,20.0,0.35
mp-1716,Rh2O3,233.0,104.0,0.31
mp-1719,PuN,154.0,91.0,0.25
mp-1748,NdS,81.0,34.0,0.32
mp-1793,Zr3Te,106.0,39.0,0.33
mp-1798,CeMg3,38.0,29.0,0.19
mp-18198,ScSnPt,119.0,56.0,0.3
mp-1840,TiO2,191.0,78.0,0.32
mp-1866,KO2,25.0,10.0,0.32
mp-18712,Mg3Pd,59.0,21.0,0.34
mp-18728,NaFe2O3,120.0,35.0,0.37
mp-1877,HoAl3,77.0,60.0,0.19
mp-18878,LiFeAs2O7,96.0,48.0,0.29
mp-18971,Mn(PtO2)3,190.0,70.0,0.34
mp-18988,Li2MnO3,112.0,79.0,0.22
mp-19082,TiMnO3,159.0,64.0,0.32
mp-19225,FeAgO2,131.0,41.0,0.36
mp-19340,LiVO2,120.0,62.0,0.28
mp-19391,NaVO2,114.0,50.0,0.31
mp-19819,GdIn,59.0,16.0,0.37
mp-19821,Cr2GeC,202.0,82.0,0.32
mp-19893,PbCO3,56.0,21.0,0.33
mp-19905,Co2Si,225.0,107.0,0.29
mp-19908,EuF3,86.0,36.0,0.32
mp-19921,PbO,11.0,5.0,0.31
mp-19966,GdTl,63.0,18.0,0.37
mp-20004,Zr2InC,119.0,82.0,0.22
mp-20010,DyCuGe,69.0,56.0,0.18
mp-2006,V3Ir,237.0,122.0,0.28
mp-20082,Yb(As2Rh3)2,170.0,60.0,0.34
mp-20106,Li2NdSb2,37.0,22.0,0.25
mp-20136,BaPb,25.0,13.0,0.27
mp-20423,Nd3SnC,35.0,8.0,0.39
mp-20497,SrIn2Ir,55.0,28.0,0.28
mp-2063,Pr2O3,121.0,40.0,0.35
mp-20632,UGa2,68.0,56.0,0.18
mp-20689,Nb3B2,240.0,168.0,0.22
mp-20787,FeB,291.0,141.0,0.29
mp-20790,InPS4,18.0,11.0,0.24
mp-20828,Pt3Pb,172.0,46.0,0.38
mp-20849,Pd3Pb,132.0,45.0,0.35
mp-20892,ZrFeP,202.0,119.0,0.25
mp-20913,UGeS,91.0,31.0,0.35
mp-20943,TePb,40.0,10.0,0.38
mp-20997,InNi,126.0,41.0,0.35
mp-21087,UAs,94.0,29.0,0.36
mp-21113,Y(FeGe)2,126.0,57.0,0.3
mp-21248,NbSiIr,244.0,121.0,0.29
mp-21309,MgTe(PbO3)2,78.0,68.0,0.16
mp-21462,Eu,13.0,10.0,0.19
mp-21495,CrFeP,238.0,143.0,0.25
mp-2150,BaTe2,28.0,15.0,0.27
mp-2151,Mg17Al12,50.0,24.0,0.29
mp-22120,YRh3C,197.0,80.0,0.32
mp-2213,FeNi,187.0,92.0,0.29
mp-22266,GdB6,171.0,91.0,0.27
mp-22313,Na2PtO2,70.0,27.0,0.33
mp-22396,Nb4SiNi,191.0,99.0,0.28
mp-224,WS2,27.0,20.0,0.2
mp-22447,Zr3P,125.0,64.0,0.28
mp-22513,Dy3TlC,39.0,12.0,0.36
mp-22683,CeCuSn,84.0,47.0,0.26
mp-22692,Pb,38.0,57.0,-0.0
mp-22716,LiCu2P,80.0,32.0,0.33
mp-22870,InBr,13.0,6.0,0.28
mp-22897,HgCl,9.0,4.0,0.31
mp-22904,CaCl2,33.0,13.0,0.32
mp-22980,Li2CoCl4,25.0,15.0,0.26
mp-230,SbO2,96.0,55.0,0.26
mp-23021,K2ReBr6,12.0,6.0,0.29
mp-2306,LaMg3,37.0,25.0,0.22
mp-2316,TmZn,47.0,30.0,0.23
mp-23177,HgBr,12.0,5.0,0.3
mp-23193,KCl,16.0,9.0,0.26
mp-23234,TmBi,55.0,32.0,0.26
mp-23268,NaI,16.0,8.0,0.27
mp-23350,Rb2PtCl6,11.0,6.0,0.26
mp-2343,Mg2Sn,41.0,26.0,0.24
mp-238,MnPd,134.0,51.0,0.33
mp-23846,KHF2,26.0,13.0,0.29
mp-23956,K2MgH4,23.0,17.0,0.2
mp-2404,CaAl2,56.0,41.0,0.21
mp-24095,PrH2,77.0,39.0,0.28
mp-2418,PdSe2,23.0,14.0,0.24
mp-24416,MnH,110.0,-33.0,0.67
mp-25587,LiNiO2,71.0,27.0,0.33
mp-2580,NbB,264.0,197.0,0.2
mp-2588,YCo3,152.0,40.0,0.38
mp-2646,Mg3Sb2,42.0,18.0,0.32
mp-2647,Al2Au,105.0,33.0,0.36
mp-2663,Nb3Pt,207.0,80.0,0.33
mp-2694,LaAl2,55.0,42.0,0.19
mp-2716,TiNi,152.0,38.0,0.39
mp-27227,LiAg3O2,74.0,19.0,0.38
mp-27304,K2MnCl6,10.0,7.0,0.23
mp-27321,Na3(CuS)4,40.0,19.0,0.3
mp-27388,Ba(SiNi)2,52.0,36.0,0.22
mp-27465,S8O,2.0,1.0,0.17
mp-27757,Be4B,138.0,150.0,0.1
mp-27821,Ag3P11,53.0,32.0,0.25
mp-27840,Cr3Se4,66.0,34.0,0.28
mp-27984,PrClO,69.0,33.0,0.29
mp-2838,UNi5,207.0,91.0,0.31
mp-2857,ScN,200.0,156.0,0.19
mp-28602,Na3ClO,37.0,23.0,0.24
mp-28692,Cs2CuF6,16.0,17.0,0.11
mp-29088,Sr3(GeN)2,50.0,30.0,0.25
mp-29210,Li2Ga,33.0,29.0,0.16
mp-29396,Cu2PbO2,51.0,17.0,0.35
mp-29665,Sb3Au,28.0,4.0,0.43
mp-2977,CuAgTe2,16.0,9.0,0.27
mp-29772,YGe3,73.0,52.0,0.21
mp-30068,CIN,5.0,9.0,-0.08
mp-30073,La(FeSb3)4,88.0,56.0,0.24
mp-30178,Mg2Al5Cu6,100.0,58.0,0.26
mp-3032,RbBF4,17.0,7.0,0.32
mp-30354,ScAg4,92.0,37.0,0.32
mp-30410,Mn2Au5,127.0,32.0,0.38
mp-3042,K2SiF6,39.0,18.0,0.3
mp-30465,YBiPd2,94.0,4.0,0.48
mp-30598,SrCuSn2,47.0,23.0,0.28
mp-30767,Li7Sn2,28.0,25.0,0.16
mp-30844,ScSnPt2,139.0,14.0,0.45
mp-3093,ErB2Ru3,215.0,106.0,0.29
mp-30999,CuCl2,7.0,4.0,0.26
mp-31152,CaGaPt,83.0,24.0,0.37
mp-31208,LiIn2Ir,82.0,78.0,0.14
mp-31277,Sn4Ir,72.0,36.0,0.29
mp-31498,BaPt,50.0,19.0,0.33
mp-31907,Mn(ReO4)2,20.0,11.0,0.27
mp-3239,Er(CoSi)2,148.0,95.0,0.24
mp-34195,BaCO3,48.0,20.0,0.32
mp-3499,MnSbPd2,123.0,13.0,0.45
mp-3503,Li6WN4,85.0,68.0,0.18
mp-3536,MgAl2O4,180.0,96.0,0.27
mp-35539,Zn2GeSe4,34.0,21.0,0.24
mp-3605,Th(CoGe)2,149.0,65.0,0.31
mp-3666,LiTaO3,123.0,83.0,0.22
mp-3676,MgCu4Sn,100.0,55.0,0.27
mp-37153,AgAsF6,32.0,2.0,0.46
mp-3909,ZrAlCo2,161.0,78.0,0.29
mp-3963,K2CO3,25.0,11.0,0.32
mp-4006,ErPO4,136.0,65.0,0.29
mp-4043,NbCu3Se4,33.0,22.0,0.22
mp-406,CdTe,35.0,14.0,0.33
mp-41,Zr,89.0,6.0,0.47
mp-4322,Pr(CoB)2,137.0,89.0,0.23
mp-4346,SrRuO3,159.0,79.0,0.29
mp-4429,CaSiO3,93.0,47.0,0.28
mp-4484,Ba(PRu)2,87.0,48.0,0.27
mp-4488,Sr(FeAs)2,78.0,42.0,0.27
mp-452,CoAs3,116.0,83.0,0.21
mp-4551,SrHfO3,34.0,35.0,0.11
mp-4552,ErInCu2,101.0,38.0,0.33
mp-4561,UAl3Pd2,122.0,51.0,0.32
mp-4779,Li2B4O7,41.0,42.0,0.12
mp-4846,MnSbRh,111.0,30.0,0.37
mp-4852,Ni(RhSe2)2,87.0,32.0,0.34
mp-4904,Pr(SiRu)2,140.0,79.0,0.26
mp-4978,Ti2AlN,155.0,115.0,0.2
mp-505042,Cu(BiO2)2,58.0,27.0,0.3
mp-505071,Si2Pd9,163.0,37.0,0.39
mp-510076,Rb7Au5O2,14.0,5.0,0.33
mp-510086,Ca2InN,35.0,26.0,0.2
mp-510198,IrPb,131.0,63.0,0.29
mp-510691,Hf5Sn4,112.0,63.0,0.26
mp-5176,Y(SiNi)2,136.0,70.0,0.28
mp-5288,Y(FeSi)2,140.0,80.0,0.26
mp-5309,KAuF4,30.0,8.0,0.38
mp-5326,Yb(CoSi)2,94.0,81.0,0.17
mp-534,B13N2,243.0,161.0,0.23
mp-541013,TiI4,2.0,1.0,0.24
mp-541037,CsCuO,20.0,6.0,0.36
mp-541196,Ce2Fe12P7,180.0,112.0,0.24
mp-541365,LiEuH3,58.0,49.0,0.17
mp-542090,Na4Al3(SiO4)3,28.0,29.0,0.12
mp-5429,Tb(SiOs)2,174.0,86.0,0.29
mp-543024,Cs2Pd(IBr2)2,15.0,7.0,0.31
mp-546,HoRh2,158.0,60.0,0.33
mp-546125,ScAsO4,141.0,67.0,0.3
mp-549490,KNb4O5F,139.0,84.0,0.25
mp-552802,ErU2S3O2,91.0,45.0,0.29
mp-554134,SnS,3.0,2.0,0.26
mp-554573,SiO2,26.0,33.0,0.05
mp-555359,KMnF3,59.0,27.0,0.3
mp-555477,Ag2H3IO6,88.0,27.0,0.36
mp-556424,RbVF3,65.0,35.0,0.27
mp-559390,CaAl2O4,76.0,42.0,0.27
mp-565203,Mn2O3,150.0,51.0,0.35
mp-567089,YbRh,80.0,34.0,0.31
mp-567431,ThCl4,25.0,10.0,0.32
mp-567558,CsAgCl2,21.0,6.0,0.37
mp-567612,ScOs2,237.0,66.0,0.37
mp-567705,TiAl2,109.0,82.0,0.2
mp-567789,InI3,1.0,1.0,0.24
mp-568419,Mg3Ir,76.0,31.0,0.32
mp-568662,BaCl2,28.0,11.0,0.32
mp-569364,Be22Re,137.0,152.0,0.09
mp-569416,C,113.0,88.0,0.19
mp-569526,RbCuCl3,16.0,5.0,0.36
mp-570290,MnTlCl3,34.0,15.0,0.3
mp-570460,LaCo5,131.0,36.0,0.37
mp-570506,ZrI2,9.0,8.0,0.17
mp-571222,CsBr,6.0,5.0,0.21
mp-571638,Rb2Cu(BrCl)2,12.0,6.0,0.28
mp-5795,CaMg2N2,101.0,73.0,0.21
mp-579718,Th2Cu,46.0,11.0,0.39
mp-581024,CsK2Sb,12.0,7.0,0.24
mp-5982,La(NiAs)2,108.0,48.0,0.31
mp-600089,CsPbBr3,13.0,7.0,0.26
mp-603347,TiNi,103.0,20.0,0.41
mp-603640,GaAs,67.0,31.0,0.3
mp-607111,AlPt3,218.0,74.0,0.35
mp-610,MnAs,57.0,51.0,0.16
mp-616575,MnB,156.0,50.0,0.35
mp-631382,YMgCu,39.0,-36.0,1.17
mp-631455,HfSi2Br,82.0,-154.0,3.0
mp-631474,BiSb2Os,98.0,-9.0,0.55
mp-631553,Ga2BSb,51.0,236.0,-0.41
mp-631754,ReSnGe,133.0,37.0,0.37
mp-6328,Na2Ti2Sb2O,52.0,18.0,0.34
mp-634657,NaHS,21.0,9.0,0.3
mp-636320,TiGaFe2,190.0,100.0,0.28
mp-639789,Fe2Re3,251.0,101.0,0.32
mp-640885,Er(CuTe)3,54.0,29.0,0.27
mp-642659,V2H,192.0,54.0,0.37
mp-643367,YCBr,22.0,10.0,0.31
mp-644225,Sr2MgH6,45.0,36.0,0.18
mp-6668,LiTiPO5,96.0,58.0,0.25
mp-672698,GeTe,9.0,-2.0,0.61
mp-675009,Y4CuTe8,49.0,24.0,0.29
mp-679,Er2O3,148.0,67.0,0.3
mp-6847,KY2Ti2S2O5,74.0,31.0,0.32
mp-686717,Fe2NiSe4,72.0,31.0,0.31
mp-6927,NpO,193.0,56.0,0.37
mp-7223,Ca3AsN,52.0,49.0,0.14
mp-7283,LaB4,173.0,152.0,0.16
mp-7457,SnF2,14.0,8.0,0.25
mp-7476,RbDyO2,80.0,48.0,0.25
mp-754126,CuAuO2,143.0,22.0,0.43
mp-754537,LiLuO2,105.0,51.0,0.29
mp-755309,Li3NbS4,10.0,7.0,0.23
mp-755478,CdBiO3,101.0,33.0,0.35
mp-755483,Al2O3,213.0,110.0,0.28
mp-755875,Ti3O4,178.0,89.0,0.29
mp-7568,ThSb2,73.0,30.0,0.32
mp-758006,Ca2SiO4,99.0,44.0,0.31
mp-758604,LiAgF2,49.0,8.0,0.42
mp-758658,CaAl2(SiO4)2,83.0,41.0,0.29
mp-759897,Cu2OF2,42.0,6.0,0.43
mp-766454,TiO2,155.0,65.0,0.32
mp-768870,Ca(ClO3)2,22.0,13.0,0.25
mp-7692,Al(CrB)2,227.0,175.0,0.19
mp-7704,Ca(AlSi)2,62.0,41.0,0.23
mp-7714,Li4UO5,75.0,53.0,0.21
mp-776264,LiFeF4,38.0,25.0,0.23
mp-778364,Na6Ti2O7,46.0,25.0,0.27
mp-7899,BaCdO2,80.0,36.0,0.31
mp-7906,Al2HgS4,38.0,22.0,0.26
mp-7914,NaScO2,104.0,70.0,0.22
mp-8377,TeO2,25.0,19.0,0.19
mp-84,Sn,46.0,21.0,0.3
mp-8439,Ca5(AlSb3)2,39.0,23.0,0.25
mp-8458,BaAsPt,69.0,23.0,0.35
mp-8487,CaSbPt,82.0,35.0,0.31
mp-855,MgBe13,100.0,99.0,0.13
mp-8557,BaPaO3,96.0,41.0,0.31
mp-86,Sm,36.0,22.0,0.24
mp-861867,AcI3,2.0,1.0,0.3
mp-861901,LiGaCu2,84.0,33.0,0.33
mp-861932,LiZnAu2,91.0,13.0,0.43
mp-862378,Sc2TcAu,119.0,48.0,0.32
mp-862610,LiHfIr2,172.0,67.0,0.33
mp-862679,TaZn2,152.0,89.0,0.25
mp-862742,Pm2ZnGe,60.0,27.0,0.31
mp-862798,Pt3W,284.0,118.0,0.32
mp-862896,PmCdRh2,111.0,41.0,0.34
mp-862989,Pm2AgPt,84.0,21.0,0.38
mp-863659,LiScHg2,56.0,18.0,0.35
mp-863672,ErMgCd2,55.0,25.0,0.3
mp-863727,LiTiRh2,154.0,62.0,0.32
mp-863735,ErRh2Pb,126.0,-94.0,0.99
mp-864630,LiMg2Hg,41.0,22.0,0.27
mp-864669,NbGeRu2,225.0,70.0,0.36
mp-864761,Ta2MnOs,260.0,70.0,0.38
mp-864837,Nd2CuRu,80.0,27.0,0.35
mp-865113,NaNdAu2,52.0,17.0,0.35
mp-865158,YbNdHg2,47.0,22.0,0.3
mp-865176,HfCu3,133.0,23.0,0.42
mp-865184,LiScPd2,90.0,-1041.0,-1.52
mp-865224,Th2BiTe,79.0,46.0,0.26
mp-865231,LiScTl2,40.0,22.0,0.27
mp-865249,TmSnRu2,155.0,67.0,0.31
mp-865421,UGaTc2,175.0,94.0,0.27
mp-865507,VSiRu2,253.0,114.0,0.3
mp-865527,YAl3,72.0,40.0,0.27
mp-865534,YBr2,9.0,11.0,0.06
mp-865545,Pm2SiAu,74.0,20.0,0.38
mp-865932,Li2CePb,170.0,23.0,0.44
mp-865934,YbF2,81.0,29.0,0.34
mp-865951,Ac2IrAu,80.0,11.0,0.44
mp-865969,LuReTc2,224.0,86.0,0.33
mp-865995,YbSnAu2,71.0,11.0,0.43
mp-866064,NdMgAu2,75.0,47.0,0.24
mp-866077,MgSc2Cd,59.0,32.0,0.27
mp-866159,YZrRu2,147.0,62.0,0.31
mp-866178,Li2NdAl,45.0,29.0,0.23
mp-866228,CaDyHg2,49.0,24.0,0.29
mp-867221,Ce3(TaN3)2,167.0,84.0,0.29
mp-867308,InCuPd2,128.0,-19.0,0.58
mp-867348,DyMgSn,58.0,38.0,0.23
mp-867364,LiTmPd2,82.0,-73.0,1.13
mp-867762,DyMgAu2,84.0,18.0,0.4
mp-867803,LiCa2Cd,16.0,10.0,0.24
mp-8881,AlAs,67.0,39.0,0.26
mp-889,Cr3B4,299.0,211.0,0.21
mp-8937,CrSi2,195.0,172.0,0.16
mp-8943,PtF4,39.0,18.0,0.3
mp-91,W,304.0,147.0,0.29
mp-9164,ThSiAu,121.0,62.0,0.28
mp-927,CuP2,89.0,50.0,0.26
mp-9324,Ba3MnN3,34.0,21.0,0.24
mp-9349,KRb2ScF6,20.0,14.0,0.22
mp-936,Hg4Pt,59.0,28.0,0.3
mp-9562,LiBeAs,54.0,38.0,0.22
mp-961648,KBaP,25.0,-11.0,0.76
mp-961665,MgScGa,59.0,39.0,0.23
mp-961681,ZrGePt,106.0,-30.0,0.66
mp-962062,BaSrSn,19.0,1.0,0.47
mp-962072,KYSn,22.0,3.0,0.43
mp-971647,NaMnO2,84.0,53.0,0.24
mp-971914,SrSiPt,67.0,28.0,0.31
mp-972048,Zn6Mo,69.0,50.0,0.21
mp-972408,UBiTe,52.0,31.0,0.26
mp-972957,ScTiRu2,238.0,79.0,0.35
mp-973442,Lu2AgPt,94.0,33.0,0.34
mp-973455,LiMg2,30.0,17.0,0.26
mp-973535,K3Sc,25.0,-25.0,1.23
mp-973684,LuMg3,36.0,-6.0,0.58
mp-973834,PdAu3,142.0,21.0,0.43
mp-974322,Ho3Mg,38.0,25.0,0.23
mp-974558,Na,12.0,1.0,0.48
mp-975044,Li(SiRh)2,157.0,70.0,0.31
mp-975179,RbTlO3,47.0,6.0,0.44
mp-975198,RbTl3,14.0,14.0,0.12
mp-9756,ThGeO4,166.0,65.0,0.33
mp-975793,PrTmTl2,53.0,18.0,0.35
mp-976239,LiMg,26.0,16.0,0.24
mp-976333,Li2AcTl,33.0,13.0,0.33
mp-976344,Nd2ZnGa,54.0,27.0,0.29
mp-976588,HoTh3,54.0,36.0,0.23
mp-977181,NaMo3,120.0,16.0,0.44
mp-977416,Er2AgIr,106.0,32.0,0.36
mp-977541,Hf2TcOs,209.0,87.0,0.32
mp-978276,Mg3Co,51.0,27.0,0.27
mp-978498,Sc3Al,52.0,36.0,0.22
mp-978537,SmHoZn2,58.0,23.0,0.32
mp-978853,Sr(GeIr)2,109.0,65.0,0.25
mp-978964,Th3Mg,57.0,27.0,0.29
mp-979936,RbYb3,9.0,6.0,0.24
mp-979945,Yb3V,21.0,15.0,0.21
mp-979955,Yb3Mn,17.0,10.0,0.26
mp-979968,Yb2CdHg,34.0,19.0,0.26
mp-980006,Yb3Os,49.0,6.0,0.44
mp-980059,TbPmRh2,105.0,26.0,0.39
mp-980200,Zn3Rh,128.0,43.0,0.35
mp-982388,HoTmMg2,39.0,20.0,0.28
mp-982613,Pm2InHg,59.0,17.0,0.37
mp-983358,HfAlFe2,166.0,91.0,0.27
mp-9835,CoSb2,98.0,63.0,0.23
mp-983555,Er2PdAu,94.0,31.0,0.35
mp-983602,CdAg2Au,80.0,15.0,0.41
mp-985471,Ce2ZnHg,54.0,13.0,0.39
mp-985587,Al2O3,37.0,3.0,0.46
mp-985588,FeCl,76.0,-13.0,0.59
mp-985592,Li6PS5Cl,28.0,-11.0,0.72
mp-9873,EuZnGe,43.0,37.0,0.17
mp-989554,LaMnN3,130.0,48.0,0.33
mp-989555,Tl2InGaF6,96.0,-26.0,0.65
mp-991676,NbCu3Te4,30.0,20.0,0.23
mp-992,CaGa2,43.0,31.0,0.21
mp-9925,Ca2Sb,32.0,27.0,0.17
mp-996940,TiReN3,264.0,117.0,0.31
mp-996944,Cs2TlInBr6,20.0,9.0,0.3
mp-997618,BSb,99.0,84.0,0.17
mp-9985,NbNiB,239.0,140.0,0.25
mp-9987,Nb2PC,224.0,140.0,0.24
mp-998883,Ge,58.0,12.0,0.4
mp-998982,Ti3Sn,149.0,55.0,0.33
mp-998988,Ti3Ga,108.0,27.0,0.38
mp-999133,TaPd,204.0,71.0,0.34
mvc-3569,YCrO3,157.0,-5.0,0.52
mp-1002165,GeC,167.0,108.0,0.23
mp-1002228,PtC,199.0,-57.0,0.66
mp-1002574,KMnO2,57.0,25.0,0.31
mp-10046,V2AsC,203.0,115.0,0.26
mp-10058,YbCo3B2,199.0,116.0,0.26
mp-10064,SiO2,267.0,-33.0,0.56
mp-1007660,IrN,281.0,135.0,0.29
mp-1007853,Fe3Ni,194.0,75.0,0.33
mp-1007855,FeNi3,195.0,91.0,0.3
mp-1007908,DyTlTe2,33.0,19.0,0.26
mp-1007975,CrNi3,148.0,-42.0,0.66
mp-1008226,CrFe2Sn,200.0,13.0,0.47
mp-1008630,WC,358.0,231.0,0.23
mp-1009135,MnP,26.0,0.0,0.49
mp-1009490,O2,3.0,1.0,0.41
mp-1009582,NiC,284.0,24.0,0.46
mp-1009594,Pr,31.0,14.0,0.3
mp-1009733,Ca2Si,35.0,24.0,0.23
mp-1009747,ScSn,46.0,-30.0,0.91
mp-1009766,AgN,143.0,3.0,0.49
mp-10161,KZnSb,24.0,16.0,0.23
mp-1016829,MgRuO3,194.0,32.0,0.42
mp-1016843,MgOsO3,184.0,5.0,0.49
mp-1016876,ZnSiO3,257.0,70.0,0.37
mp-1017511,Cr3Fe,245.0,63.0,0.38
mp-1017627,Lu3AlN,100.0,75.0,0.2
mp-1018031,KInO2,51.0,40.0,0.19
mp-1018112,YSb2,45.0,4.0,0.46
mp-1018126,GaBi,28.0,20.0,0.22
mp-1018136,LaBiPt,70.0,32.0,0.3
mp-10185,Mg3ZnC,70.0,34.0,0.29
mp-1018684,Er2Mg3Ru,53.0,30.0,0.26
mp-1018728,HoSe2,75.0,30.0,0.32
mp-1018752,LaTeCl,57.0,26.0,0.3
mp-1018794,Mg2Ge,42.0,14.0,0.35
mp-1018818,NdTeCl,58.0,29.0,0.29
mp-1019052,ReN,368.0,180.0,0.29
mp-1019266,SmTe2,54.0,22.0,0.32
mp-1022725,Sn,93.0,52.0,0.26
mp-1025017,NdSi2Ru3,170.0,69.0,0.32
mp-1025218,SiPt5Pb,199.0,67.0,0.35
mp-1025236,Sc(TiGa2)2,103.0,62.0,0.25
mp-1025246,Er2B4C,169.0,127.0,0.2
mp-1025281,Ti2NiSe4,77.0,43.0,0.27
mp-1025345,Ti2CrTe4,49.0,38.0,0.19
mp-1025346,GaAsPd5,144.0,60.0,0.32
mp-1025420,SmSi2Ni,121.0,68.0,0.26
mp-1025517,Ti2InN,137.0,84.0,0.24
mp-1025549,Tl3VSe4,149.0,42.0,0.37
mp-1029313,NaRuN,93.0,35.0,0.33
mp-1029316,Na2ZrN2,36.0,20.0,0.27
mp-1029378,Mg2SbN3,114.0,59.0,0.28
mp-1029457,Ba(CoN)2,98.0,33.0,0.35
mp-1029656,Na6WN4,55.0,37.0,0.22
mp-10311,ZrVGe,146.0,72.0,0.29
mp-10312,HfVGe,155.0,70.0,0.3
mp-1038916,MgAl3,61.0,25.0,0.32
mp-1039,MgTe,35.0,12.0,0.34
mp-1039124,MgCd,22.0,13.0,0.26
mp-10443,YbSiAu,75.0,46.0,0.24
mp-10456,HfSiPt,192.0,101.0,0.28
mp-10608,Y3SnC,82.0,63.0,0.2
mp-10627,SrS,137.0,23.0,0.42
mp-10652,SmTe,60.0,37.0,0.24
mp-10688,CeO,126.0,85.0,0.23
mp-1081,V3S4,98.0,70.0,0.21
mp-10846,NiAsSe,101.0,54.0,0.27
mp-10909,AlRe2,255.0,139.0,0.27
mp-11029,Y(Al2Cu)4,101.0,60.0,0.25
mp-1128,SiIr,215.0,87.0,0.32
mp-11322,ZrSi,142.0,92.0,0.23
mp-11365,Ti3Cu,127.0,15.0,0.44
mp-11481,MoIr,310.0,174.0,0.26
mp-11523,Ni3Sn,163.0,11.0,0.47
mp-11571,YSn3,62.0,14.0,0.4
mp-11576,YbTl,33.0,20.0,0.25
mp-11607,Si3N4,252.0,149.0,0.25
mp-11684,SiO2,103.0,59.0,0.26
mp-1174,MgSc,48.0,27.0,0.26
mp-11870,Hg2Rh,88.0,39.0,0.31
mp-12097,Sm(SiIr)2,167.0,105.0,0.24
mp-12574,Dy2C,63.0,30.0,0.29
mp-12598,PrPt3,155.0,59.0,0.33
mp-12675,MnAu,116.0,32.0,0.37
mp-12678,TaMn2,243.0,88.0,0.34
mp-12697,Sc(MnSn)6,113.0,70.0,0.24
mp-12765,GdC2,106.0,41.0,0.33
mp-12875,ReO2,317.0,130.0,0.32
mp-12892,CaSi2,59.0,87.0,0.01
mp-1291,ErIn3,54.0,20.0,0.34
mp-13034,MoN,212.0,-104.0,0.79
mp-13098,YN,160.0,-75.0,0.78
mp-13181,LaF3,63.0,1000.0,-0.76
mp-1335,VFe,196.0,61.0,0.36
mp-13399,Lu(NiGe)2,136.0,47.0,0.34
mp-13416,Sc2InNi2,101.0,44.0,0.31
mp-13453,BePd3,162.0,37.0,0.39
mp-13542,ZrGeTe4,13.0,11.0,0.18
mp-1364,YNi,78.0,24.0,0.36
mp-13811,Ba2MgUO6,107.0,56.0,0.28
mp-14019,NiB,259.0,111.0,0.31
mp-14038,Rb2NaRhF6,68.0,17.0,0.38
mp-1447,SmSe,73.0,27.0,0.34
mp-1481,SnTe,43.0,8.0,0.41
mp-1492,CdTe,33.0,16.0,0.29
mp-1572,GaSe,14.0,9.0,0.24
mp-158,As,19.0,10.0,0.28
mp-15988,Li2CuSb,53.0,34.0,0.24
mp-1602,SiS2,6.0,3.0,0.24
mp-161,B,196.0,173.0,0.16
mp-16318,RbTiS2,52.0,31.0,0.25
mp-1635,TbMg,41.0,22.0,0.27
mp-16730,MoN,326.0,-23.0,0.54
mp-17017,Al12Co4Cu,123.0,74.0,0.25
mp-17129,Sr3(AlN2)2,86.0,45.0,0.28
mp-1727,SrSi2,54.0,39.0,0.21
mp-1738,SmAs,71.0,47.0,0.23
mp-1786,Ti3Au,139.0,71.0,0.28
mp-18856,MoO3,33.0,36.0,0.1
mp-18876,K3CrO8,34.0,19.0,0.27
mp-1909,LaMg2,36.0,19.0,0.28
mp-1912,ZnAg,91.0,23.0,0.39
mp-19149,NaNiO2,100.0,68.0,0.22
mp-19246,Sr2Mn3(SbO)2,72.0,33.0,0.3
mp-19281,LaCrO3,165.0,86.0,0.28
mp-19442,Mn(Ni3O4)2,160.0,85.0,0.28
mp-1961,TiAg,101.0,40.0,0.33
mp-19724,Cu3Ge,123.0,43.0,0.34
mp-19741,CeNiC2,150.0,72.0,0.29
mp-19765,In2HgTe4,20.0,12.0,0.25
mp-19773,GdGa2,80.0,54.0,0.22
mp-19835,Nb2InC,158.0,97.0,0.25
mp-19962,Sn2Pt,93.0,24.0,0.38
mp-20064,DyGa2,68.0,53.0,0.19
mp-20214,UGa3,85.0,50.0,0.26
mp-20362,Mn3NiN,121.0,50.0,0.32
mp-20369,CeIn3,49.0,34.0,0.22
mp-20372,Ce,51.0,27.0,0.27
mp-20483,Pb,37.0,13.0,0.35
mp-2053,Nb3Sb,174.0,82.0,0.3
mp-2065,MnS,56.0,39.0,0.22
mp-20684,Pr3AlN,31.0,9.0,0.37
mp-20766,CeCuGe,72.0,42.0,0.26
mp-20874,EuB6,155.0,103.0,0.23
mp-20920,TbIn3,51.0,27.0,0.28
mp-20941,UIn3,64.0,37.0,0.26
mp-21003,Y2ReC2,124.0,74.0,0.25
mp-21012,Si3Rh5,199.0,76.0,0.33
mp-21109,LaAl4,70.0,29.0,0.32
mp-21128,Ca3PbN,29.0,7.0,0.39
mp-21371,VCoSi,209.0,112.0,0.27
mp-21489,Rb2PbO3,37.0,16.0,0.31
mp-21508,Y2Pd2Pb,82.0,29.0,0.34
mp-2170,Li2Pt,68.0,31.0,0.3
mp-21883,VGaFe2,225.0,122.0,0.27
mp-2210,ZrCu,117.0,31.0,0.38
mp-22253,Zn(InS2)2,34.0,15.0,0.3
mp-22268,ZrPRu,208.0,108.0,0.28
mp-22297,Cu2Se,89.0,-4.0,0.53
mp-22312,Nb4FeSi,191.0,84.0,0.31
mp-22490,Sc3(NiGe)4,127.0,75.0,0.25
mp-22537,Er3SnC,41.0,9.0,0.4
mp-2260,FePt,201.0,92.0,0.3
mp-22646,InPd2,128.0,33.0,0.38
mp-22701,ScFeSi,139.0,62.0,0.31
mp-22790,VGaCo2,198.0,84.0,0.31
mp-2281,SmSb,57.0,33.0,0.25
mp-22907,DyBi,53.0,31.0,0.25
mp-22914,CuCl,48.0,10.0,0.4
mp-22916,NaBr,27.0,12.0,0.31
mp-22935,CsBrF,10.0,9.0,0.16
mp-22947,K2ReCl6,12.0,6.0,0.3
mp-22964,PbClF,80.0,59.0,0.2
mp-22987,BiIO,17.0,10.0,0.25
mp-22993,AgClO4,27.0,7.0,0.39
mp-23033,Sr2NCl,56.0,33.0,0.26
mp-2313,MgIn,40.0,15.0,0.33
mp-23179,NiBi3,34.0,10.0,0.36
mp-23209,SrCl2,34.0,13.0,0.33
mp-23275,TiCl3,9.0,3.0,0.36
mp-23291,PbCl2,18.0,8.0,0.31
mp-23301,BiF3,128.0,-13.0,0.55
mp-23487,KIO3,21.0,13.0,0.24
mp-23818,BaLiH3,38.0,39.0,0.12
mp-23866,H2SeO4,9.0,7.0,0.2
mp-2393,YTl3,55.0,16.0,0.37
mp-2420,PW,222.0,117.0,0.28
mp-2422,ErGa2,72.0,50.0,0.22
mp-2430,ZrGe2,107.0,73.0,0.22
mp-2449,NbRh3,249.0,146.0,0.25
mp-2463,LuFe2,83.0,50.0,0.25
mp-24658,SmH2,73.0,45.0,0.24
mp-24669,CrH,185.0,76.0,0.32
mp-249,HfAl,117.0,74.0,0.24
mp-2532,PrTe,56.0,19.0,0.35
mp-25372,LiCuO2,122.0,65.0,0.27
mp-2583,TiRh,190.0,49.0,0.38
mp-27138,K2PdBr4,9.0,6.0,0.24
mp-27194,SnI2,10.0,-0.0,0.51
mp-27246,LuSBr,18.0,7.0,0.34
mp-2735,PaO,193.0,5.0,0.49
mp-2743,LiPd,73.0,27.0,0.33
mp-2760,Nb6C5,239.0,161.0,0.22
mp-2762,YIr2,196.0,88.0,0.31
mp-27785,TiBr2,4.0,3.0,0.2
mp-28319,PtI2,4.0,4.0,0.15
mp-288,PtS,156.0,33.0,0.4
mp-28896,CuBIr,191.0,68.0,0.34