material_id,pretty_formula,K_VRH,G_VRH,poisson_ratio
mp-865997,YbPrZn2,46.0,28.0,0.25
mp-866082,MgSc2Tc,90.0,23.0,0.38
mp-866166,Y2PdRu,102.0,39.0,0.33
mp-866287,DySnAu2,88.0,17.0,0.41
mp-8670,Ca3CrN3,86.0,51.0,0.25
mp-867146,ScNbRu2,195.0,91.0,0.3
mp-867249,TaAlFe2,222.0,137.0,0.24
mp-867278,DyPaTc2,121.0,42.0,0.34
mp-867753,CuSbRh2,177.0,-79.0,0.76
mp-867773,DyMgCd2,54.0,25.0,0.3
mp-867820,LiAlPd2,129.0,-92.0,0.97
mp-867873,LiTm2Al,54.0,31.0,0.26
mp-867895,Sm2CuRu,73.0,32.0,0.31
mp-867904,AlGeRu2,219.0,93.0,0.31
mp-867915,ScGaCo2,149.0,84.0,0.26
mp-867919,ErNbRu2,180.0,71.0,0.33
mp-867928,ScGaRh2,161.0,78.0,0.29
mp-872,BaSn,28.0,16.0,0.26
mp-8780,Cr2N,285.0,140.0,0.29
mp-8883,GaAs,60.0,40.0,0.23
mp-8932,Cs2SiP2,21.0,11.0,0.27
mp-8963,Cs2HgF4,20.0,13.0,0.23
mp-9068,K2NaAlP2,28.0,17.0,0.24
mp-919,HoTe,65.0,19.0,0.37
mp-9212,NaAlO2,81.0,45.0,0.27
mp-922,CoPt3,221.0,91.0,0.32
mp-9592,Yb(MnAs)2,61.0,35.0,0.26
mp-961653,FeSiW,253.0,115.0,0.3
mp-961713,ZrSnPt,130.0,87.0,0.23
mp-971705,Tm2MgTl,56.0,18.0,0.36
mp-971744,ZnCo3,178.0,61.0,0.35
mp-971979,Tm2ZnAg,65.0,29.0,0.3
mp-972088,Zr3Zn,94.0,38.0,0.32
mp-972183,ZrGaPd2,156.0,-25.0,0.59
mp-972209,Ta2TcW,250.0,119.0,0.3
mp-972420,YErAg2,69.0,31.0,0.31
mp-972442,SnBO3,184.0,103.0,0.26
mp-972874,SeBr3,12.0,1.0,0.45
mp-973,U2N3,202.0,94.0,0.3
mp-973053,ScH3,95.0,44.0,0.3
mp-973175,ScBi3,56.0,18.0,0.35
mp-973432,LuScRh2,107.0,37.0,0.34
mp-973636,Lu2ZnGa,68.0,40.0,0.26
mp-973736,GeAs3,71.0,19.0,0.38
mp-973865,PaAl3,92.0,55.0,0.25
mp-973893,Lu2TlHg,67.0,16.0,0.39
mp-973933,NiN,228.0,17.0,0.46
mp-974063,HoScRu2,133.0,48.0,0.34
mp-974337,RuPbO3,116.0,55.0,0.3
mp-974458,Re3F,269.0,81.0,0.36
mp-974642,LiAg2Pb,146.0,72.0,0.29
mp-974866,Rb3Na,25.0,5.0,0.41
mp-975190,RbTeO3,104.0,68.0,0.23
mp-975333,LiCaO3,52.0,9.0,0.42
mp-975769,PrYZn2,55.0,22.0,0.32
mp-976142,PrDyTl2,52.0,19.0,0.34
mp-976229,KAgO3,65.0,24.0,0.34
mp-976872,NaNi3,103.0,49.0,0.29
mp-976971,NaPd3,93.0,41.0,0.31
mp-977062,Na3Ca,9.0,4.0,0.3
mp-977176,NaTcO3,288.0,88.0,0.36
mp-977356,ZnGaIr2,213.0,105.0,0.29
mp-977398,TbCdAg2,66.0,8.0,0.44
mp-977427,Zn2PtRh,193.0,63.0,0.35
mp-977438,MgInRh2,80.0,63.0,0.19
mp-978279,Mg3Cu,46.0,26.0,0.26
mp-978846,SnI2,20.0,5.0,0.38
mp-978926,SmGeO3,149.0,64.0,0.31
mp-979074,TmO3,163.0,29.0,0.41
mp-979421,YErZn2,67.0,33.0,0.29
mp-979427,YHoZn2,62.0,26.0,0.32
mp-979931,YNbRu2,179.0,58.0,0.35
mp-980014,TmTh3,51.0,36.0,0.21
mp-980094,TiPd,154.0,92.0,0.25
mp-980193,Ti2H4Pd,137.0,64.0,0.3
mp-980760,SmNiGe2,102.0,46.0,0.3
mp-980947,SrCaHg2,30.0,9.0,0.36
mp-981215,Zn3Co,87.0,32.0,0.34
mp-981393,Lu2HgAu,84.0,28.0,0.35
mp-981933,NaPd2Pb,35.0,13.0,0.34
mp-982,TmPd3,139.0,45.0,0.35
mp-982381,NaCu3,71.0,15.0,0.4
mp-982664,K3In,11.0,11.0,0.11
mp-983126,HoTmZn2,59.0,32.0,0.27
mp-9839,K2LiAlF6,51.0,33.0,0.24
mp-984352,Al2CoOs,200.0,109.0,0.27
mp-984714,AgAsS,40.0,14.0,0.35
mp-986,CeZn,53.0,24.0,0.3
mp-989528,Rb2AlInH6,61.0,23.0,0.33
mp-9902,Sc2CoSi2,123.0,77.0,0.24
mp-995,EuIr2,147.0,63.0,0.31
mp-995122,NbS2,19.0,16.0,0.18
mp-9956,AlCr2C,189.0,134.0,0.21
mp-996992,LiAgO2,74.0,32.0,0.31
mp-997055,CuBiO2,71.0,21.0,0.37
mp-997161,CoAuO2,148.0,47.0,0.36
mp-997181,VCuO2,134.0,67.0,0.28
mp-998896,YC,96.0,-26.0,0.65
mp-998900,TcN,348.0,-15.0,0.52
mp-998973,TiFeCoSb,155.0,69.0,0.31
mp-999130,TbNi,64.0,26.0,0.32
mp-999192,SiNi,189.0,76.0,0.32
mvc-10882,AlMoO3,125.0,35.0,0.37
mvc-10966,FeO2,15.0,-9.0,0.85
mvc-11012,La2MgTiO6,151.0,86.0,0.26
mvc-13900,YCuO3,120.0,56.0,0.3
mvc-15448,YNiO3,175.0,75.0,0.31
mvc-16001,AlWO3,185.0,-236.0,1.6
mp-1001012,Sc2ZnS4,64.0,32.0,0.29
mp-1002109,VCo,207.0,71.0,0.35
mp-1002136,LaAu,65.0,16.0,0.39
mp-1002183,TcB,344.0,114.0,0.35
mp-1002187,TcB,324.0,52.0,0.42
mp-10033,NbS2,23.0,15.0,0.24
mp-1003485,Mg2Mn3O6,101.0,57.0,0.26
mp-1008275,Cr3Ni,124.0,98.0,0.19
mp-1008559,BP,170.0,158.0,0.15
mp-10086,YSF,106.0,54.0,0.28
mp-1008677,TiO2,250.0,84.0,0.35
mp-1008776,SrC2,46.0,18.0,0.33
mp-1008901,MgH2,60.0,13.0,0.4
mp-1009221,NaN,22.0,18.0,0.17
mp-1009237,NdN,129.0,-92.0,0.97
mp-1009596,PdN,257.0,-17.0,0.53
mp-1009755,Ca2Ge,24.0,24.0,0.12
mp-1013524,Ca3N2,74.0,55.0,0.2
mp-1013548,Ca3SbN,56.0,49.0,0.16
mp-1013549,Ba3BiN,36.0,26.0,0.21
mp-1013719,Ba3BiSb,19.0,10.0,0.28
mp-1014316,C3N,185.0,-107.0,0.86
mp-1016200,MgGeAs2,52.0,25.0,0.29
mp-1016852,BaMnO3,111.0,74.0,0.23
mp-1017531,VPt,238.0,99.0,0.32
mp-1017539,ZnO,46.0,11.0,0.39
mp-1017566,GePbO3,19.0,82.0,-0.38
mp-1018048,LaNiC2,125.0,77.0,0.24
mp-1018135,LiCdAs,38.0,29.0,0.2
mp-1018161,CrNiSb,85.0,50.0,0.25
mp-10184,MgSbPt,89.0,35.0,0.32
mp-1019317,TcB2,283.0,244.0,0.17
mp-1019358,ThAsS,99.0,53.0,0.28
mp-10219,YOF,124.0,46.0,0.33
mp-1022726,Ba2CuH6,35.0,23.0,0.23
mp-1025207,Ti(CrTe2)2,41.0,35.0,0.17
mp-1025212,InAsPt5,160.0,63.0,0.33
mp-1025237,Ba2RuO4,71.0,47.0,0.23
mp-1025306,AlAsPt5,209.0,59.0,0.37
mp-1025331,In2AgSe4,21.0,9.0,0.3
mp-1025340,Cu2WSe4,1.0,4.0,-0.53
mp-1025351,Sr4Bi2O,38.0,25.0,0.23
mp-1025386,HgPPt5,183.0,55.0,0.36
mp-1025456,CaZrF6,57.0,23.0,0.32
mp-10264,NiTe,36.0,17.0,0.3
mp-1029347,KPtN,64.0,34.0,0.27
mp-1029574,Na5OsN4,40.0,15.0,0.33
mp-1029711,NaVN2,45.0,16.0,0.34
mp-10322,BaHfN2,104.0,44.0,0.32
mp-1039106,SnBi,52.0,-15.0,0.66
mp-10398,HoNi4B,153.0,76.0,0.29
mp-1042,HfSi,153.0,96.0,0.24
mp-1043,HfV2,142.0,21.0,0.43
mp-10446,Sc6NiTe2,73.0,30.0,0.32
mp-10584,Ba2LiOsO6,86.0,40.0,0.3
mp-10598,CuSn,77.0,34.0,0.31
mp-10616,BaLiAs,34.0,23.0,0.23
mp-1066,YbN,94.0,30.0,0.36
mp-10684,CaTe,44.0,-2.0,0.52
mp-10750,Dy,41.0,26.0,0.24
mp-1076,KB6,137.0,107.0,0.19
mp-1087,SrS,47.0,32.0,0.22
mp-10919,Rb2PtC2,37.0,17.0,0.3
mp-10955,Sn(HgSe2)2,14.0,14.0,0.12
mp-10991,YCuAs2,89.0,48.0,0.27
mp-11091,NdMgPt,79.0,26.0,0.35
mp-11193,VAuS2,106.0,52.0,0.29
mp-11247,Li3Au,42.0,6.0,0.43
mp-11250,Mg2Au,58.0,23.0,0.33
mp-113,Tc,300.0,142.0,0.3
mp-11334,W,299.0,136.0,0.3
mp-11345,ZrP,134.0,82.0,0.25
mp-11413,ScGa2,74.0,52.0,0.22
mp-11517,NbRu3,271.0,128.0,0.3
mp-11519,NiSnRh2,194.0,22.0,0.44
mp-11555,PuRu,175.0,9.0,0.47
mp-11594,PrB2Ir3,225.0,96.0,0.31
mp-11596,PrBPt3,156.0,60.0,0.33
mp-117,Sn,38.0,21.0,0.27
mp-11700,BaCuSb,45.0,29.0,0.24
mp-1172,MgRh,115.0,58.0,0.28
mp-11736,ZrSiO4,222.0,101.0,0.3
mp-11738,Na3PS3O,27.0,13.0,0.3
mp-11873,TlAsPd5,136.0,49.0,0.34
mp-12061,Lu(FeB)2,148.0,71.0,0.29
mp-12177,Te2O5,46.0,39.0,0.17
mp-122,Ba,9.0,6.0,0.23
mp-12385,Ba2YTaO6,134.0,75.0,0.26
mp-1247,Sb2Ir,118.0,72.0,0.25
mp-1260,SrPd5,108.0,47.0,0.31
mp-1261,EuZn,37.0,23.0,0.25
mp-12648,Ti2Be17,127.0,143.0,0.09
mp-1265,MgO,151.0,119.0,0.19
mp-12669,Dy2SO2,125.0,65.0,0.28
mp-12737,YB2Rh2C,202.0,49.0,0.39
mp-12763,TbB6,175.0,67.0,0.33
mp-1285,PtO2,204.0,87.0,0.31
mp-12863,Ba(AlSi)2,42.0,23.0,0.27
mp-12908,ScAgSe2,62.0,19.0,0.36
mp-12956,Yb(FeP3)4,150.0,108.0,0.21
mp-13010,YSn2,58.0,36.0,0.24
mp-13396,LiIn2Rh,83.0,48.0,0.26
mp-13475,CeSi2Ir3,183.0,102.0,0.27
mp-14024,Zr3O,132.0,56.0,0.32
mp-141,Yb,15.0,10.0,0.23
mp-1410,DyN,170.0,122.0,0.21
mp-14983,Si4P4Ru,120.0,86.0,0.21
mp-151,Tl,31.0,2.0,0.47
mp-1548,PrMg,35.0,23.0,0.23
mp-1552,Mo2C,294.0,150.0,0.28
mp-1555,V3Sb,178.0,79.0,0.31
mp-1560,LaTe,37.0,17.0,0.3
mp-1575,CaC2,53.0,15.0,0.37
mp-15895,Cu2SiS3,79.0,36.0,0.3
mp-15954,As2Rh,139.0,83.0,0.25
mp-15960,Li5AlO4,81.0,55.0,0.23
mp-15999,Li3AuS2,38.0,20.0,0.27
mp-16341,Li2HgGe,54.0,13.0,0.39
mp-16363,CoAsS,131.0,105.0,0.18
mp-16365,SnSb,30.0,20.0,0.23
mp-16519,UAlNi4,168.0,66.0,0.33
mp-1664,V3Pd,197.0,74.0,0.33
mp-1683,ZrSe3,16.0,9.0,0.26
mp-1714,FeSi2,181.0,127.0,0.21
mp-1720,SmRu2,152.0,14.0,0.46
mp-17287,TaTe4Ir,18.0,13.0,0.21
mp-17862,Ag3Ge5P6,65.0,36.0,0.27
mp-18782,LiFeO2,127.0,86.0,0.23
mp-18922,Mn5O8,136.0,53.0,0.33
mp-19051,LaCoO3,256.0,-10.0,0.52
mp-19124,Ca3Mn2O7,142.0,86.0,0.25
mp-19181,BaHo2NiO5,139.0,71.0,0.28
mp-19226,NaFePO4,84.0,42.0,0.29
mp-1929,NdB6,174.0,110.0,0.24
mp-19726,Sc3InB,79.0,54.0,0.22
mp-1989,Ta5Si3,215.0,133.0,0.24
mp-19920,Ce3Ga,46.0,27.0,0.25
mp-1996,NdIr3,189.0,84.0,0.31
mp-20050,InP3,51.0,23.0,0.3
mp-20203,MnCuP,128.0,24.0,0.41
mp-20228,MnGaNi2,154.0,21.0,0.43
mp-20238,Th(FeGe)2,126.0,72.0,0.26
mp-20459,TiPbO3,63.0,39.0,0.24
mp-20465,As2Pd,107.0,49.0,0.3
mp-20492,ScSiRh,148.0,74.0,0.29
mp-2050,HoSb,63.0,36.0,0.26
mp-20664,Mn2Sb,86.0,26.0,0.36
mp-2092,CePd3,129.0,57.0,0.31
mp-20940,TiCdO3,148.0,66.0,0.31
mp-20959,Ce2InGe2,67.0,39.0,0.26
mp-20978,Ho3TlC,43.0,12.0,0.37
mp-21020,Sr2UO4,92.0,40.0,0.31
mp-2103,CuAu3,143.0,28.0,0.41
mp-21048,CrP,173.0,138.0,0.18
mp-21090,MnNiGe,131.0,60.0,0.3
mp-21233,Ti3InN,153.0,-13.0,0.54
mp-21253,EuMg,11.0,14.0,0.04
mp-21271,PrMnGe,66.0,32.0,0.29
mp-21328,HfSn,102.0,16.0,0.42
mp-218,Sm2O3,130.0,55.0,0.32
mp-21875,Y4GaCo4,85.0,29.0,0.35
mp-2189,CrSe,58.0,21.0,0.34
mp-22262,CoMoP,258.0,122.0,0.3
mp-22307,ScSi2Rh,141.0,85.0,0.25
mp-22394,ThRu3C,223.0,105.0,0.3
mp-22464,NaO3,19.0,15.0,0.19
mp-22469,InNi3,149.0,53.0,0.34
mp-22498,CrSb2,62.0,32.0,0.28
mp-22598,In2O3,145.0,58.0,0.32
mp-22637,HfNbP,179.0,99.0,0.27
mp-22752,FeSn2,80.0,56.0,0.22
mp-22784,InNi3,150.0,62.0,0.32
mp-22856,Bi2S3,22.0,3.0,0.43
mp-22901,KI,50.0,12.0,0.39
mp-22991,CsVI3,11.0,3.0,0.36
mp-23024,SrBrF,39.0,26.0,0.23
mp-2317,LaNi5,135.0,59.0,0.31
mp-23178,WCl6,1.0,0.0,0.29
mp-23231,AgBr,40.0,10.0,0.39
mp-23319,RbVCl3,16.0,2.0,0.44
mp-2333,NdPd3,115.0,50.0,0.31
mp-23471,K2RuCl6,15.0,4.0,0.39
mp-23558,Ag2BiO3,100.0,21.0,0.4
mp-23697,K3AlH6,20.0,-41.0,4.0
mp-2399,YHg,65.0,27.0,0.32
mp-24081,ScHCl,18.0,9.0,0.28
mp-24719,NiH,199.0,68.0,0.35
mp-24834,H4N2O3,22.0,10.0,0.3
mp-2498,PrOs2,188.0,-47.0,0.64
mp-2500,AlCu,113.0,67.0,0.25
mp-2520,TmSb,61.0,37.0,0.25
mp-2567,V3Si,196.0,74.0,0.33
mp-2568,YSi2,83.0,-13.0,0.58
mp-2606,BaPd5,99.0,40.0,0.32
mp-2659,LiN3,35.0,15.0,0.31
mp-2678,VPt,243.0,141.0,0.26
mp-2698,YCu2,80.0,22.0,0.38
mp-2725,TbIr2,186.0,89.0,0.29
mp-2752,Nb3Au,184.0,62.0,0.35
mp-2758,SrSe,41.0,27.0,0.23
mp-2767,TiGa,115.0,72.0,0.24
mp-27710,CrB4,277.0,258.0,0.15
mp-2775,SrAl4,53.0,30.0,0.26
mp-2786,Ca5Zn3,27.0,11.0,0.32
mp-28024,YSiPd2,126.0,50.0,0.33
mp-28049,BaBrCl,15.0,6.0,0.32
mp-28163,K2PdF4,24.0,9.0,0.34
mp-28364,Rb2CdO2,36.0,14.0,0.33
mp-28391,SiCl4,1.0,0.0,0.49
mp-28567,LiBiF4,72.0,27.0,0.33
mp-28630,Na3BN2,47.0,24.0,0.28
mp-28884,Cs(FeAs)2,44.0,26.0,0.25
mp-29076,FeWN2,224.0,119.0,0.27
mp-292,V3As,194.0,109.0,0.26
mp-29400,CsFeCl3,14.0,5.0,0.34
mp-2960,HfSnRh,147.0,64.0,0.31
mp-29941,Sc2C,74.0,15.0,0.41
mp-30034,MgBr2,15.0,5.0,0.34
mp-30364,BaAu5,76.0,14.0,0.41
mp-30586,HoInCu2,84.0,32.0,0.33
mp-30591,Li2CuSn,52.0,30.0,0.26
mp-30648,LiMg2Ga,42.0,21.0,0.29
mp-30650,Mg2Ga,45.0,25.0,0.27
mp-30737,YMgAg,58.0,17.0,0.36
mp-30789,U2Mo,176.0,35.0,0.41
mp-30882,TiZn2,106.0,63.0,0.25
mp-30943,MgPSe3,12.0,8.0,0.23
mp-30981,Te(HO)6,28.0,18.0,0.23
mp-31411,Th(Al2Cr)4,115.0,87.0,0.2
mp-31441,Li2GaIr,81.0,21.0,0.38
mp-3164,BaSO4,52.0,19.0,0.34
mp-3208,ZrGeTe,58.0,44.0,0.2
mp-33588,Ca2NF,67.0,46.0,0.22
mp-3470,MgSiO3,96.0,67.0,0.22
mp-363,NbGe2,142.0,105.0,0.2
mp-36526,AcOF,108.0,47.0,0.31
mp-37501,In10Sb9Te,47.0,16.0,0.35
mp-3762,VCu3S4,39.0,25.0,0.23
mp-3791,ScCo2Sn,136.0,74.0,0.27
mp-38,Pr,32.0,19.0,0.26
mp-381,SiRu,248.0,105.0,0.31
mp-3829,CdSnAs2,47.0,23.0,0.29
mp-4210,Sm2CuO4,145.0,59.0,0.32
mp-4238,MnFeAs,159.0,72.0,0.3
mp-4253,V(CrC)2,291.0,119.0,0.32
mp-4275,Sm(SiPd)2,131.0,58.0,0.31
mp-4370,Sr(AsPd)2,81.0,34.0,0.32
mp-4533,Na2SiO3,62.0,35.0,0.26
mp-4633,Yb(SiPd)2,107.0,43.0,0.32
mp-4656,Y(Al2Fe)4,123.0,85.0,0.22
mp-4789,PrRhO3,177.0,62.0,0.34
mp-486,NiP2,102.0,67.0,0.23
mp-5019,YCo3B2,205.0,123.0,0.25
mp-5075,Sc3CoC4,180.0,120.0,0.23
mp-5078,SrZnF4,61.0,21.0,0.34
mp-510311,BaZnPb,30.0,20.0,0.23
mp-5122,Na3AlP2,28.0,16.0,0.27
mp-5313,HoCo3B2,215.0,122.0,0.26
mp-5350,Zn(GaS2)2,44.0,29.0,0.23
mp-5394,LaSF,85.0,43.0,0.28
mp-5443,Nb2SnC,160.0,79.0,0.29
mp-545482,PdSeO3,18.0,11.0,0.25
mp-546546,SiO2,83.0,38.0,0.3
mp-548,NbCr2,228.0,64.0,0.37
mp-5495,Ag2PdO2,84.0,14.0,0.42
mp-557668,MnPtF6,25.0,20.0,0.19
mp-558125,BaTiO3,102.0,63.0,0.25
mp-558838,NiPtF6,41.0,27.0,0.22
mp-559492,Tl(NiS)2,45.0,16.0,0.34
mp-560203,SiO2,55.0,42.0,0.19
mp-560562,Rb2CrF6,24.0,13.0,0.27
mp-561075,Na2CdSnS4,20.0,10.0,0.29
mp-567412,Y5Sn3,62.0,44.0,0.21
mp-567618,Si5Pt12,205.0,38.0,0.41
mp-567629,CsPbBr3,18.0,7.0,0.33
mp-567679,TiGaRh,136.0,-40.0,0.66
mp-567929,Al13Os4,147.0,77.0,0.28
mp-567948,Rb2Pd(IBr2)2,7.0,10.0,0.02
mp-568170,TbCl3,25.0,13.0,0.28
mp-568673,Y(SiRu)2,151.0,80.0,0.27
mp-568705,YbIr,109.0,33.0,0.36
mp-568827,Be12W,144.0,158.0,0.1
mp-568867,Si3N4,190.0,27.0,0.43
mp-569008,PdCl2,22.0,1.0,0.48
mp-569228,WN,354.0,-78.0,0.62
mp-569423,Ga,49.0,7.0,0.43
mp-569685,LiZnP,53.0,-69.0,1.65
mp-569697,Ce(NiP)2,115.0,67.0,0.25
mp-569708,TiPt3,234.0,107.0,0.3
mp-570459,Te,366.0,6.0,0.49
mp-570491,TaNi3,222.0,96.0,0.31
mp-570553,FeP4,141.0,114.0,0.18
mp-570558,Rb2NbCl6,10.0,4.0,0.31
mp-570837,Cs(AsRu)2,34.0,16.0,0.3
mp-571039,CaAlPd,62.0,27.0,0.31
mp-571143,TiCl3,5.0,3.0,0.28
mp-571172,In2Bi,44.0,35.0,0.18
mp-5714,TmCo3B2,221.0,124.0,0.26
mp-571438,Be12V,130.0,144.0,0.1
mp-571500,Ho(FeB)2,100.0,77.0,0.19
mp-571506,TmAlSi,92.0,65.0,0.21
mp-571655,B4C,116.0,34.0,0.37
mp-571665,Ho(SiPt)2,144.0,2.0,0.49
mp-572283,SiO2,90.0,42.0,0.3
mp-574025,HfInAu2,127.0,25.0,0.41
mp-5760,NdSF,94.0,49.0,0.28
mp-589,TbFe2,103.0,20.0,0.41
mp-604516,Y2AlNi2,89.0,34.0,0.33
mp-6074,KRb2TiF6,30.0,63.0,-0.11
mp-610706,Cs2CoF6,15.0,7.0,0.31
mp-626620,RbHO,21.0,10.0,0.29
mp-631342,MnTcPd,102.0,-4.0,0.52
mp-631373,TiVW,106.0,-22.0,0.61
mp-631441,NbBi2Mo,114.0,90.0,0.19
mp-631524,BTe2As,60.0,287.0,-0.42
mp-631555,MnVNi,205.0,21.0,0.45
mp-635,ScRh3,184.0,84.0,0.3
mp-657,YbZn2,46.0,21.0,0.3
mp-675180,ErCuSe2,65.0,29.0,0.31
mp-676011,Si,66.0,30.0,0.3
mp-676290,RbHS,28.0,15.0,0.27
mp-676416,V2CN,306.0,189.0,0.24
mp-680932,OsPbO3,160.0,73.0,0.3
mp-69,Sm,37.0,23.0,0.24
mp-6912,Mn2Sb,52.0,16.0,0.36
mp-6915,As2PdO6,142.0,72.0,0.28
mp-6961,Sr(SbPd)2,70.0,18.0,0.38
mp-7,S,1.0,1.0,0.2
mp-70,Rb,3.0,1.0,0.36
mp-7000,SiO2,29.0,44.0,-0.0
mp-7073,BaTiS3,45.0,5.0,0.44
mp-7080,Li5(NiN)3,79.0,47.0,0.25
mp-717,B2O3,196.0,153.0,0.19
mp-7219,Na2ZrSe3,35.0,22.0,0.24
mp-723,Cr23C6,291.0,138.0,0.3
mp-7288,Sc2SO2,140.0,67.0,0.29
mp-733,GeO2,38.0,28.0,0.21
mp-7426,Ba(ZnP)2,55.0,29.0,0.28
mp-753156,La2Th2O7,124.0,57.0,0.3
mp-753722,LiCuS2,42.0,17.0,0.32
mp-753898,LaTmO2,127.0,91.0,0.21
mp-754311,Mg(ReO4)2,18.0,13.0,0.21
mp-754480,GdYO2,90.0,47.0,0.28
mp-754588,ZrBiO4,123.0,53.0,0.31
mp-754605,LiLuO2,113.0,69.0,0.25
mp-754826,CsScO2,63.0,15.0,0.39
mp-755287,Ca3CdO4,103.0,62.0,0.25
mp-755302,TiNbO4,162.0,31.0,0.41
mp-755328,ZrSn2,87.0,55.0,0.24
mp-755378,NaPdO2,90.0,45.0,0.29
mp-7554,LiMgSnAu,57.0,-8.0,0.57
mp-756473,WSCl4,1.0,3.0,-0.24
mp-7565,SbRu,147.0,51.0,0.34
mp-758302,LiAgF2,62.0,15.0,0.39
mp-7586,Ni3C,195.0,66.0,0.35
mp-758933,B8O,205.0,180.0,0.16
mp-7604,Mg3NF3,109.0,81.0,0.2
mp-761036,CdSeO4,54.0,20.0,0.34
mp-7631,SiC,213.0,187.0,0.16
mp-768479,YScO3,152.0,69.0,0.3
mp-7723,NaAlF4,68.0,569.0,-0.6
mp-774092,Na3CoO3,52.0,17.0,0.35
mp-775331,LiVO2,134.0,93.0,0.22
mp-776083,HfSnO3,26.0,17.0,0.24
mp-776165,AgAuO3,126.0,56.0,0.31
mp-776532,HfO2,217.0,106.0,0.29
mp-776896,Nb2O5,56.0,24.0,0.31
mp-780880,Rb2CoO3,32.0,15.0,0.3
mp-7891,Mg3As2,54.0,23.0,0.31
mp-7951,ThSe2,78.0,27.0,0.34
mp-8013,KRuF6,4.0,1.0,0.38
mp-8110,AlBO3,205.0,136.0,0.23
mp-8249,TlPS3,12.0,7.0,0.28
mp-8253,Na5ReO6,65.0,36.0,0.27
mp-8282,Ti2N,204.0,117.0,0.26
mp-829,AlPd,156.0,52.0,0.35
mp-8415,K2HfF6,52.0,24.0,0.3
mp-861616,LiSc2Ir,99.0,37.0,0.33
mp-861624,LiLaHg2,54.0,10.0,0.42
mp-861653,ThH3,101.0,30.0,0.36
mp-861937,Ba2AsAu,31.0,20.0,0.23
mp-862374,CdInPd2,113.0,24.0,0.4
mp-862548,Sc2AlZn,76.0,46.0,0.25
mp-862589,Re3Pt,324.0,202.0,0.24
mp-862667,LiAc2Ge,37.0,21.0,0.26
mp-862703,Sc2AgAu,93.0,26.0,0.37
mp-862734,Pm2ZnSn,61.0,22.0,0.34
mp-862778,AlSiRu2,236.0,112.0,0.3
mp-862844,PaAl3,100.0,50.0,0.29
mp-862986,PmBr3,3.0,2.0,0.26
mp-863702,Er2MgIn,58.0,28.0,0.29
mp-863713,Pm2NiIr,115.0,31.0,0.38
mp-863740,Pm2IrRu,125.0,38.0,0.36
mp-863741,Pm2PdRu,99.0,27.0,0.38
mp-8640,Hf,101.0,45.0,0.31
mp-864907,MgZrPd2,119.0,35.0,0.37
mp-864926,HfPaTc2,168.0,45.0,0.38
mp-864944,MnBe2Pt,168.0,45.0,0.38
mp-864969,Mg2PdRh,107.0,53.0,0.29
mp-864977,Dy2AgOs,104.0,38.0,0.34
mp-864997,LiSiPd2,138.0,37.0,0.38
mp-865091,HfMnRh2,177.0,68.0,0.33
mp-865107,NaMgPb2,31.0,2.0,0.47
mp-865126,NaTlPd2,75.0,-3.0,0.52
mp-865148,PaAlTc2,184.0,37.0,0.4
mp-865178,Hf2IrRh,193.0,16.0,0.46
mp-865179,Hf2FeOs,196.0,94.0,0.29
mp-865186,MgGaIr2,186.0,96.0,0.28
mp-865325,Lu2CoRu,120.0,55.0,0.3
mp-865425,ZnPd3,152.0,42.0,0.37
mp-865428,UP3,95.0,75.0,0.19
mp-865449,Tm2MgTc,84.0,28.0,0.35
mp-865471,VGaTc2,229.0,74.0,0.35
mp-865495,V2CrTc,237.0,101.0,0.31
mp-865799,Yb2AsAu,55.0,36.0,0.23
mp-865872,LiZr2Re,124.0,37.0,0.36
mp-866018,Ac2ZnGe,46.0,23.0,0.29
mp-866104,CaCdHg2,48.0,10.0,0.4
mp-866117,HfZnAu2,137.0,17.0,0.44
mp-866127,LuTaOs2,226.0,96.0,0.31
mp-866177,YbAgPd2,91.0,16.0,0.42
mp-866199,AcAg,44.0,18.0,0.32
mp-866219,HfSnRu2,202.0,109.0,0.27
mp-866289,Ac2ZnSi,50.0,24.0,0.29
mp-866299,ErTaOs2,221.0,93.0,0.32
mp-866820,CaSnS3,12.0,-46.0,-6.28
mp-867148,LiHfRh2,152.0,57.0,0.33
mp-867761,Sc2CoRu,132.0,60.0,0.3
mp-867798,La2AgRu,90.0,11.0,0.44
mp-867799,Ca2BiAu,43.0,25.0,0.26
mp-867802,Sc2CuOs,126.0,52.0,0.32
mp-867857,SmH3,85.0,-64.0,1.0
mp-873,VPd3,178.0,76.0,0.31
mp-8830,NaRhO2,116.0,65.0,0.27
mp-8948,CeAsPd,83.0,38.0,0.3
mp-9095,Tb2Si3,75.0,35.0,0.3
mp-9262,Cs2PtF6,15.0,6.0,0.32
mp-9270,SbIrS,143.0,87.0,0.25
mp-9304,DyCuSeO,92.0,39.0,0.31
mp-946,PrIr2,172.0,74.0,0.31
mp-950995,Li6PS5I,27.0,13.0,0.28
mp-961686,HfSiNi,93.0,18.0,0.41
mp-962057,SrCaSi,34.0,-27.0,1.03
mp-966,NbS2,24.0,14.0,0.26
mp-971863,ZnP,70.0,-13.0,0.6
mp-972156,TbY3,42.0,23.0,0.27
mp-972337,Ti2IrW,191.0,90.0,0.3
mp-972373,Tl,35.0,1.0,0.49
mp-972415,YErAl2,71.0,36.0,0.28
mp-972635,SmErHg2,60.0,18.0,0.36
mp-972793,Si2B2O5,160.0,60.0,0.33
mp-972892,MgHg5,21.0,-2.0,0.54
mp-972981,K,4.0,2.0,0.33
mp-973143,ScZn3,87.0,33.0,0.33
mp-973402,SbPd3,148.0,16.0,0.45
mp-973465,Ho3In,53.0,25.0,0.29
mp-973561,LiCe2Ru,68.0,5.0,0.46
mp-973786,H3Pb,15.0,-11.0,0.97
mp-973884,Ni3Hg,166.0,44.0,0.38
mp-974221,HoErTl2,53.0,19.0,0.34
mp-974799,Rb3Sr,15.0,12.0,0.19
mp-975578,Li2SnHg,21.0,4.0,0.42
mp-976075,Li3Ca,14.0,7.0,0.28
mp-976113,LaAu3,100.0,2.0,0.49
mp-976284,EuSbO3,99.0,51.0,0.28
mp-976765,Na3Au,25.0,7.0,0.37
mp-976784,NiAu3,147.0,21.0,0.43
mp-977165,Li3Co,14.0,21.0,0.01
mp-977264,Pm2Mg,39.0,21.0,0.28
mp-977353,Ta2ReMo,290.0,129.0,0.31
mp-977376,TbCdAu2,89.0,20.0,0.39
mp-977545,ZrTc2W,198.0,109.0,0.27
mp-977547,MgZnRh2,147.0,62.0,0.32
mp-978009,HgOs,193.0,59.0,0.36
mp-978542,SmErIn2,58.0,22.0,0.33
mp-978856,SrH3,51.0,16.0,0.36
mp-978917,Sn3B,58.0,4.0,0.47
mp-979270,Tb2AgIr,101.0,30.0,0.36
mp-979712,DyYZn2,60.0,27.0,0.31
mp-979899,Sm3Ho,37.0,20.0,0.28
mp-981200,Zn3Cd,54.0,-2.0,0.52
mp-981209,Ti3Ni,78.0,4.0,0.47
mp-984552,BeZnO3,136.0,-70.0,0.81
mp-984729,BaSr3O4,77.0,49.0,0.24
mp-985295,Ag3P,85.0,18.0,0.4
mp-9853,LuP5,66.0,47.0,0.21
mp-985302,Ac3Pr,29.0,14.0,0.29
mp-985438,Ce2CdHg,25.0,9.0,0.34
mp-985584,Na3PS4,22.0,5.0,0.39
mp-9942,Ti2FeS4,61.0,56.0,0.15
mp-996941,Cs2RbInBr6,28.0,0.0,0.49
mp-996964,CdAgO2,140.0,36.0,0.38
mp-997009,BaAuO2,72.0,25.0,0.34
mp-998965,TiInFe2,239.0,56.0,0.39
mp-998974,TiFeCoAs,147.0,52.0,0.34
mp-999187,SiHgP2,40.0,2.0,0.48
mp-999189,Fe3Ni,169.0,-4.0,0.51
mp-999295,PrN,50.0,18.0,0.34
mvc-15605,AlWO3,135.0,72.0,0.27
mvc-4274,BiO2,55.0,44.0,0.18
mp-1003313,Li2Mn3O6,118.0,73.0,0.24
mp-10061,ErBPd3,140.0,9.0,0.47
mp-10063,CdSnSb2,36.0,18.0,0.29
mp-1007663,HoTlTe2,32.0,19.0,0.25
mp-1007852,FeCo3,183.0,80.0,0.31
mp-1007918,DyAu,87.0,18.0,0.4
mp-1008681,Sc,51.0,-39.0,1.02
mp-1008689,Ti2Si,73.0,-7.0,0.55
mp-1008733,Ge,49.0,15.0,0.36
mp-1008786,MgTe,54.0,32.0,0.25
mp-1009078,CoN,305.0,58.0,0.41
mp-1009133,MnCo,195.0,99.0,0.28
mp-1009792,RuC,223.0,52.0,0.39
mp-1009834,Al2Ru,155.0,122.0,0.19
mp-1011031,PrBi,50.0,-24.0,0.78
mp-1011376,CeSe2,54.0,2.0,0.48
mp-10115,ThB2Ir3,248.0,123.0,0.29
mp-10139,Sc3SnB,83.0,69.0,0.17
mp-10144,B2W,295.0,141.0,0.29
mp-10157,K,4.0,-1.0,0.6
mp-1016880,ZnRhO3,158.0,33.0,0.4
mp-1017446,HfCdO3,126.0,62.0,0.29
mp-1017534,ZnCdSe2,51.0,19.0,0.34
mp-1017546,ZrN,234.0,102.0,0.31
mp-1017554,CdNi3N,182.0,68.0,0.33
mp-1017632,Ni3SnN,103.0,46.0,0.3
mp-1018013,Ti2InNi,159.0,23.0,0.43
mp-1018089,CaZnSe2,32.0,12.0,0.33