material_id,pretty_formula,K_VRH,G_VRH,poisson_ratio
mp-568113,Ba(AsRh)2,80.0,36.0,0.31
mp-568619,SiC,213.0,187.0,0.16
mp-568624,Tb2B2C3,151.0,59.0,0.33
mp-568806,C,117.0,99.0,0.17
mp-568848,GaCl2,2.0,2.0,0.25
mp-568880,YInPd2,102.0,27.0,0.38
mp-569170,CaTe,33.0,19.0,0.26
mp-569265,Mg3Pt,71.0,24.0,0.35
mp-5693,NaCrS2,60.0,37.0,0.25
mp-569535,Ca2Bi,31.0,23.0,0.21
mp-569668,VSe,49.0,38.0,0.19
mp-569752,UPt,123.0,26.0,0.4
mp-569815,Si2Ru,185.0,108.0,0.25
mp-569871,Tm6CoBi2,62.0,32.0,0.28
mp-569875,ScBRh3,194.0,96.0,0.29
mp-569927,ErZn5,79.0,47.0,0.25
mp-570074,Sc3IrC4,190.0,122.0,0.24
mp-570256,Ag2HgI4,14.0,6.0,0.32
mp-570334,SiW3,184.0,-146.0,1.04
mp-570466,Li2Ca,16.0,9.0,0.26
mp-570510,Xe,1.0,0.0,0.32
mp-570771,BaLi2(MgSi)2,38.0,32.0,0.18
mp-570822,Tb3AlC,36.0,12.0,0.35
mp-570832,SrPt5,161.0,69.0,0.31
mp-571041,DyB2Rh2C,205.0,41.0,0.41
mp-571263,KIn9Co2,47.0,30.0,0.24
mp-571419,Zr2Al4C5,183.0,127.0,0.22
mp-571461,K4ZnAs2,15.0,9.0,0.26
mp-571493,YbHgPb,36.0,12.0,0.35
mp-573697,CsCl,12.0,6.0,0.28
mp-573995,Ho(CoB)2,166.0,110.0,0.23
mp-574235,Yb(NiGe)2,91.0,36.0,0.33
mp-574438,ThRu2,169.0,6.0,0.48
mp-5777,BaTiO3,97.0,55.0,0.26
mp-578601,NaNbO2,146.0,57.0,0.33
mp-5787,SrCuO2,88.0,42.0,0.3
mp-582034,SiC,213.0,187.0,0.16
mp-583,CoAs,157.0,80.0,0.28
mp-583266,MgZn,52.0,12.0,0.39
mp-5934,Yb(CuSi)2,77.0,56.0,0.21
mp-601848,Fe11Co5,192.0,98.0,0.28
mp-604914,VSe,24.0,-5.0,0.62
mp-605663,AlPd5,162.0,51.0,0.36
mp-610917,O2,2.0,1.0,0.38
mp-620054,ReC5BrO5,4.0,3.0,0.19
mp-6204,Cs2NaScF6,19.0,30.0,-0.02
mp-622041,ThInAu2,103.0,19.0,0.41
mp-624668,BaSb2,26.0,15.0,0.26
mp-631355,SrCrRh2,84.0,-9.0,0.55
mp-631371,TlCuIr,129.0,55.0,0.31
mp-631381,TeRuSe,118.0,-52.0,0.76
mp-631537,BeReB,226.0,-266.0,1.47
mp-631556,BaGe2B,43.0,-20.0,0.77
mp-631565,GaAs2W,101.0,13.0,0.44
mp-631581,Ag2BBr,50.0,-62.0,1.56
mp-634105,HBr,10.0,7.0,0.23
mp-635460,V3AuN,39.0,-19.0,0.79
mp-646824,Ca3Ag8,50.0,21.0,0.32
mp-6654,Cs2LiGaF6,31.0,16.0,0.28
mp-6686,K2NaInF6,104.0,9.0,0.46
mp-669918,VSnRh2,189.0,76.0,0.32
mp-67,Sc,52.0,30.0,0.26
mp-672265,Cu3Pd,148.0,54.0,0.34
mp-673247,Y2O3,136.0,58.0,0.31
mp-676586,Na(VS2)2,43.0,17.0,0.32
mp-6952,RbYbF3,60.0,31.0,0.28
mp-697111,H2O,16.0,7.0,0.3
mp-706,HgF,39.0,15.0,0.32
mp-710,SmP,79.0,54.0,0.22
mp-7140,SiC,212.0,185.0,0.16
mp-7363,Sr(ZnGe)2,55.0,24.0,0.31
mp-7493,CaSb2,35.0,17.0,0.29
mp-753946,LiCoS2,74.0,47.0,0.24
mp-754223,Ta2CuO6,135.0,79.0,0.25
mp-754401,Al2O3,95.0,46.0,0.29
mp-754779,Li2NbS3,53.0,28.0,0.28
mp-754875,TbSi2Rh3,174.0,100.0,0.26
mp-754954,Ag2Se,23.0,12.0,0.29
mp-755,CoSb2,99.0,65.0,0.23
mp-755089,ZrO2,152.0,77.0,0.28
mp-7598,NbAs2,124.0,90.0,0.21
mp-760381,CuS,77.0,17.0,0.4
mp-760408,LiZnO2,97.0,51.0,0.28
mp-7608,Li2PdO2,91.0,44.0,0.29
mp-764648,LiTiO2,142.0,92.0,0.23
mp-7701,BaSi2,47.0,-16.0,0.69
mp-770881,Mn2BeO4,148.0,28.0,0.41
mp-771986,Li4Fe3O8,91.0,56.0,0.25
mp-775831,TiMn2O6,42.0,32.0,0.2
mp-7868,PtO2,46.0,31.0,0.22
mp-7931,SrP,45.0,27.0,0.25
mp-8017,AlCuTe2,52.0,24.0,0.3
mp-803,DyAl2,79.0,59.0,0.2
mp-8093,Ba2Cd,14.0,9.0,0.23
mp-8307,CaNi4B,133.0,61.0,0.3
mp-8308,Ca3Ni7B2,103.0,54.0,0.28
mp-8352,SiO2,134.0,54.0,0.32
mp-850131,NiS2,27.0,23.0,0.16
mp-853,ErNi5,146.0,72.0,0.29
mp-8535,ErSi2Rh3,164.0,92.0,0.26
mp-861645,Ca2MgTl,26.0,15.0,0.26
mp-861872,Ac2HgGe,50.0,14.0,0.37
mp-861881,LiGeAu2,102.0,12.0,0.44
mp-861947,LiPm2Ga,44.0,25.0,0.26
mp-861983,Ti2MnFe,180.0,78.0,0.31
mp-862287,BeAlRh2,199.0,104.0,0.28
mp-862318,LiAl2Ni,102.0,59.0,0.26
mp-862319,Ac2CdSn,47.0,15.0,0.35
mp-862546,Sc2AlRu,111.0,37.0,0.35
mp-862657,LiCuPd2,116.0,43.0,0.34
mp-862721,Sr2CdPb,58.0,11.0,0.41
mp-862759,PrMgZn2,51.0,31.0,0.24
mp-862786,Ac2CuGe,44.0,16.0,0.34
mp-862791,GaCuPt2,220.0,472.0,-0.13
mp-862918,PmHoMg2,39.0,20.0,0.28
mp-862938,PmMgHg2,57.0,23.0,0.32
mp-862966,PmTlAg2,62.0,15.0,0.39
mp-863667,Er2TlAg,63.0,22.0,0.34
mp-863720,HgPd3,135.0,31.0,0.39
mp-864620,CaSmCd2,42.0,23.0,0.27
mp-864622,Nd2IrPd,101.0,28.0,0.37
mp-864654,Zn2NiRh,156.0,57.0,0.34
mp-864745,Na3ZrF8,41.0,17.0,0.32
mp-864755,LiAcTe2,43.0,-4.0,0.55
mp-864804,LiTbHg2,52.0,14.0,0.38
mp-864897,Zr2CuOs,165.0,46.0,0.37
mp-864908,MgTiIr2,199.0,109.0,0.27
mp-864968,MnInRh2,209.0,55.0,0.38
mp-865006,Dy2MgAl,51.0,35.0,0.22
mp-865010,HfGaRu2,196.0,76.0,0.33
mp-865029,LiPaRu2,153.0,-8.0,0.53
mp-865193,Co3Pt,212.0,91.0,0.31
mp-865230,TmMgRh2,116.0,52.0,0.3
mp-865298,TmZnPd2,109.0,11.0,0.45
mp-865316,Gd2MgTl,62.0,19.0,0.36
mp-865433,Y2MgRu,74.0,21.0,0.37
mp-865497,V2ReOs,291.0,144.0,0.29
mp-865530,YThRu2,123.0,30.0,0.39
mp-865537,TiMnCo2,173.0,78.0,0.3
mp-865578,LiNd2Ga,36.0,24.0,0.23
mp-865583,Y2Mg,41.0,18.0,0.31
mp-865630,Yb2AgGe,40.0,-95.0,5.91
mp-865714,Li2HgAu,57.0,12.0,0.4
mp-865756,YbGaPd2,88.0,-3.0,0.52
mp-865788,TmPaTc2,126.0,41.0,0.35
mp-865884,LuInRh2,147.0,59.0,0.32
mp-865898,TiZnCo2,190.0,89.0,0.3
mp-865916,TiVRe2,255.0,115.0,0.3
mp-865920,YbPmZn2,49.0,29.0,0.25
mp-865947,YbPrAg2,46.0,21.0,0.3
mp-865948,Ti2ReRh,215.0,101.0,0.3
mp-866120,Tm2TlAg,69.0,23.0,0.35
mp-866192,Li2YbSn,34.0,30.0,0.16
mp-866193,Li2LaIn,56.0,29.0,0.28
mp-866201,Ti3Bi,102.0,-25.0,0.63
mp-866214,LuBr3,4.0,2.0,0.24
mp-866229,Ca2SnHg,3.0,31.0,-0.7
mp-867107,BeSiOs2,286.0,140.0,0.29
mp-867160,LiCd2Au,85.0,16.0,0.41
mp-867213,Er2OsPd,118.0,49.0,0.32
mp-867216,TaFeRu2,236.0,105.0,0.31
mp-867225,LaCdAg2,44.0,1.0,0.49
mp-867259,RhCl2,78.0,27.0,0.35
mp-867271,Be2CoNi,192.0,125.0,0.23
mp-867422,AcPbAu2,74.0,16.0,0.4
mp-867861,SmYMg2,38.0,21.0,0.27
mp-867867,SmMgAu2,78.0,1437.0,-0.79
mp-867879,SmHg3,56.0,20.0,0.34
mp-867916,ScGaIr2,191.0,87.0,0.3
mp-867920,K2Rh2O5,15.0,47.0,-0.27
mp-869,TaAl3,133.0,104.0,0.19
mp-871,FeSi,211.0,139.0,0.23
mp-8732,Ta2Se,40.0,26.0,0.23
mp-8800,TlCu3Se2,39.0,14.0,0.34
mp-8982,CaSiPt,60.0,34.0,0.26
mp-9,Y,39.0,23.0,0.26
mp-9075,CdCuF4,85.0,31.0,0.34
mp-9173,TiO2,94.0,54.0,0.26
mp-9211,Tm2Fe2Si2C,136.0,86.0,0.24
mp-9272,TlPt2S3,29.0,16.0,0.27
mp-9527,NdMnSi2,110.0,74.0,0.22
mp-961673,TiFeTe,153.0,80.0,0.28
mp-961691,HfNiGe,115.0,-43.0,0.71
mp-962078,CaCdSi,45.0,20.0,0.31
mp-9636,CsSbF6,15.0,5.0,0.34
mp-971720,ZnGa3,24.0,-16.0,0.93
mp-971920,TmMg3,36.0,10.0,0.38
mp-972036,WN,291.0,71.0,0.39
mp-972237,Tc3H,240.0,-17.0,0.54
mp-972275,Ti2ReRu,179.0,89.0,0.29
mp-972653,SmHoTl2,51.0,19.0,0.33
mp-972722,SmAs3,70.0,-55.0,1.02
mp-972879,Sc2RuAu,99.0,30.0,0.36
mp-973270,Ho2RuAu,109.0,34.0,0.36
mp-9743,SrAsPd,63.0,27.0,0.31
mp-974372,Rh3Se,168.0,-608.0,-8.24
mp-974457,Ru3I,227.0,81.0,0.34
mp-974581,ReBiO3,193.0,-16.0,0.54
mp-974865,NdY3,42.0,21.0,0.29
mp-975065,Re,364.0,167.0,0.3
mp-975427,RbAlO3,72.0,45.0,0.24
mp-975788,Pr2AgHg,54.0,18.0,0.35
mp-976411,Li,14.0,1.0,0.48
mp-976768,NaMg3,15.0,10.0,0.22
mp-976838,Ni3Au,173.0,46.0,0.38
mp-976843,Li2Mg,228.0,7.0,0.48
mp-977011,H3PbCI3NF3,10.0,5.0,0.29
mp-977367,CdInRh2,140.0,33.0,0.39
mp-977534,ZrNbTc2,246.0,92.0,0.33
mp-978529,SmTmHg2,64.0,18.0,0.37
mp-978555,Sm2CdIr,88.0,23.0,0.38
mp-979011,TmZr,70.0,40.0,0.26
mp-979950,AcYbMg2,25.0,17.0,0.23
mp-980063,YbDy3,33.0,18.0,0.27
mp-981214,SrMg5,31.0,10.0,0.35
mp-9827,RbHg2,11.0,5.0,0.28
mp-983539,BeAu3,145.0,33.0,0.4
mp-983584,Al3Tl,4.0,-9.0,3.63
mp-9844,BaAl2B2O7,92.0,32.0,0.34
mp-984728,BC,273.0,83.0,0.36
mp-985287,AgAu3,122.0,23.0,0.41
mp-986716,Sr3N2,51.0,22.0,0.31
mp-987,ZnCu,114.0,32.0,0.37
mp-9884,KFeSe2,18.0,8.0,0.31
mp-989504,Na2LiNF6,43.0,33.0,0.2
mp-989533,NaTl2InF6,129.0,40.0,0.36
mp-9916,NbCrSi,212.0,119.0,0.26
mp-9960,Y3TlC,75.0,64.0,0.17
mp-9961,Ti2CdC,112.0,53.0,0.29
mp-997617,BOs,315.0,203.0,0.23
mp-998147,TlCuCl3,39.0,18.0,0.31
mp-998897,YSb,54.0,67.0,0.06
mp-998981,TiAl3,106.0,69.0,0.23
mp-999086,TcN,234.0,117.0,0.29
mp-999126,NaTbS2,43.0,30.0,0.22
mp-999142,SnO,86.0,49.0,0.26
mp-999207,Sc2MnSn,40.0,27.0,0.22
mp-999266,ReN,330.0,217.0,0.23
mp-999455,NaSmS2,41.0,28.0,0.23
mvc-11438,CoSe2,37.0,14.0,0.33
mvc-13996,AlCrO3,176.0,-8.0,0.52
mvc-14940,Ti(BiO3)2,38.0,-25.0,0.92
mp-1001113,Si,84.0,-28.0,0.69
mp-1001790,LiO3,34.0,20.0,0.26
mp-1002184,TcB,177.0,-60.0,0.69
mp-10030,RuC,338.0,89.0,0.38
mp-1008500,BaO,67.0,28.0,0.31
mp-1008806,ReC2,346.0,44.0,0.44
mp-1008872,MnFeTe,86.0,68.0,0.19
mp-1008987,IrN,265.0,49.0,0.41
mp-1009014,LiCuO,110.0,31.0,0.37
mp-1009129,MgO,139.0,48.0,0.35
mp-1009640,PrN,123.0,-72.0,0.86
mp-1010136,Cu,155.0,28.0,0.41
mp-10102,KAgC2,32.0,14.0,0.31
mp-1013527,BeGeP2,72.0,65.0,0.15
mp-1013584,Ba3BiSb,20.0,11.0,0.27
mp-1014212,Si,94.0,39.0,0.32
mp-1014244,ZrZnN2,177.0,79.0,0.31
mp-1016277,YMg7,34.0,62.0,-0.07
mp-10165,KAlTe2,16.0,11.0,0.23
mp-1016819,HfZnO3,159.0,61.0,0.33
mp-1016825,HfMgO3,161.0,80.0,0.29
mp-1016841,HfHgO3,192.0,59.0,0.36
mp-1016930,ZnGeO3,195.0,89.0,0.3
mp-1017441,SrRhO3,101.0,57.0,0.26
mp-1017519,IrC,276.0,-1.0,0.5
mp-1018025,LuAgO2,123.0,37.0,0.36
mp-1018033,AgRhO2,137.0,39.0,0.37
mp-1018115,PbS,26.0,50.0,-0.08
mp-1019544,BaZrO3,143.0,88.0,0.25
mp-1020011,Li14P2(N2O)3,87.0,70.0,0.18
mp-1021668,In3Sb,37.0,-10.0,0.65
mp-1024994,HoCu4Au,101.0,32.0,0.36
mp-1025167,Hf(VGa2)2,131.0,91.0,0.22
mp-1025180,Mn(CrSe2)2,47.0,30.0,0.23
mp-1025278,V2CrTe4,58.0,33.0,0.26
mp-1025315,Mn(AlTe2)2,29.0,14.0,0.29
mp-1025413,ThSi2Ni,139.0,77.0,0.27
mp-1025431,SmPt,93.0,31.0,0.35
mp-1025457,HfAl5Ni2,130.0,80.0,0.24
mp-10255,Nb3B4,274.0,198.0,0.21
mp-1029491,CsCoN,39.0,15.0,0.33
mp-1029498,Li6CrN4,85.0,72.0,0.17
mp-1029502,Ba(NbN2)2,31.0,29.0,0.15
mp-1029756,K3BN2,30.0,12.0,0.33
mp-1030,SbPt7,210.0,32.0,0.43
mp-1039293,Mg3Cd,60.0,224.0,-0.33
mp-1047,Ca3N2,72.0,38.0,0.27
mp-10470,NbSiRh,221.0,112.0,0.28
mp-10614,SrLiP,43.0,30.0,0.22
mp-1063005,Li,14.0,6.0,0.3
mp-10638,ZrSb,95.0,58.0,0.25
mp-10658,Dy,41.0,27.0,0.23
mp-1067,LiAl,50.0,40.0,0.18
mp-10711,VSi2,174.0,147.0,0.17
mp-11019,GaCuO2,151.0,59.0,0.33
mp-11157,SmMgGa,55.0,43.0,0.19
mp-11209,AlAs,83.0,35.0,0.32
mp-11231,YAl3,76.0,63.0,0.18
mp-11293,ZrCdCu2,115.0,51.0,0.31
mp-11335,BeSe,82.0,76.0,0.14
mp-11350,CaAl9Co2,85.0,56.0,0.23
mp-11382,NdFe5,108.0,59.0,0.27
mp-11388,GaIr,217.0,68.0,0.36
mp-11393,Nb3Ga2,167.0,97.0,0.26
mp-11480,MnSnIr,105.0,15.0,0.43
mp-11577,YbZn,24.0,7.0,0.37
mp-11593,CeB2Ir3,241.0,123.0,0.28
mp-11698,Tb,40.0,26.0,0.23
mp-11755,Lu6Sb2Mo,63.0,37.0,0.26
mp-11879,BaNiSn3,56.0,32.0,0.26
mp-1200,TbCo5,148.0,46.0,0.36
mp-12107,TiPt3,237.0,113.0,0.29
mp-1211,ScCd,67.0,30.0,0.3
mp-1213,NdSb,58.0,-9.0,0.58
mp-1219,BaGa2,35.0,24.0,0.22
mp-12550,AlCuPt2,196.0,82.0,0.32
mp-12553,PrAl3,65.0,43.0,0.23
mp-12622,SrPdF4,64.0,23.0,0.34
mp-12659,Mn2Nb,233.0,75.0,0.36
mp-12696,YMgPd,70.0,20.0,0.37
mp-12723,CaAu,47.0,18.0,0.33
mp-12736,TbB2Rh2C,199.0,42.0,0.4
mp-12783,Sr(CdGa)2,48.0,28.0,0.25
mp-13172,YMgCu4,92.0,43.0,0.3
mp-13322,LiGeRh2,174.0,86.0,0.29
mp-13363,SiPt3,205.0,60.0,0.37
mp-13452,BePd2,166.0,66.0,0.32
mp-1385,CeZn2,53.0,26.0,0.29
mp-13964,HfGeTe,95.0,62.0,0.23
mp-13982,CdCu2GeS4,67.0,28.0,0.32
mp-142,Ga,50.0,35.0,0.22
mp-1441,CsO2,18.0,5.0,0.37
mp-1458,Nb3Ir,223.0,104.0,0.3
mp-149,Si,83.0,61.0,0.2
mp-1495,ErIr2,197.0,91.0,0.3
mp-1546,DyMg3,33.0,25.0,0.19
mp-15684,K2CuAs,21.0,10.0,0.3
mp-1573,Sn2Pd,80.0,30.0,0.33
mp-15821,LiNdGe,46.0,39.0,0.17
mp-15985,Zr3(Cu2Ge)2,133.0,71.0,0.27
mp-16328,DyS2,60.0,-123.0,3.76
mp-1639,BN,408.0,374.0,0.15
mp-16517,TmAl2Ni,93.0,60.0,0.23
mp-1672,CaS,57.0,39.0,0.22
mp-16723,Y3Al2,58.0,33.0,0.26
mp-1692,CuO,143.0,25.0,0.42
mp-1700,AlN,195.0,121.0,0.24
mp-1779,YbTe,40.0,26.0,0.23
mp-1795,NbF3,95.0,29.0,0.36
mp-18167,Ca3Cd2,29.0,15.0,0.28
mp-183,CeCd,10.0,12.0,0.07
mp-18337,Be3N2,214.0,186.0,0.16
mp-18724,Sr2CoO4,113.0,46.0,0.32
mp-1876,SnS,80.0,5.0,0.47
mp-18849,Fe2P2O7,76.0,36.0,0.3
mp-19027,Na5CoSO2,35.0,21.0,0.24
mp-19048,BaWO4,56.0,24.0,0.31
mp-19060,Sr2Mn3(AsO)2,67.0,41.0,0.24
mp-19066,W3O8,226.0,126.0,0.26
mp-19097,FeBO3,174.0,93.0,0.27
mp-19312,BaTb2NiO5,130.0,68.0,0.28
mp-1956,TmGa2,73.0,50.0,0.22
mp-19735,La2CuO4,144.0,53.0,0.34
mp-19774,Eu(CdSb)2,38.0,19.0,0.29
mp-20034,CaPb,49.0,35.0,0.21
mp-20040,EuBPd3,105.0,-7.0,0.53
mp-20225,CePb3,50.0,18.0,0.34
mp-2028,Be2Nb,159.0,103.0,0.23
mp-20296,In2Co,89.0,27.0,0.36
mp-20305,InAs,49.0,25.0,0.28
mp-20320,InTe,20.0,12.0,0.26
mp-20438,PuTe,75.0,38.0,0.28
mp-20791,MnVAs,106.0,55.0,0.28
mp-20817,GePtSe,121.0,66.0,0.27
mp-20887,VSn2,98.0,52.0,0.27
mp-2090,FeCo,189.0,91.0,0.29
mp-20901,NiSe2,77.0,38.0,0.29
mp-21040,Zr2Fe3Ge,158.0,88.0,0.26
mp-21065,SiP2,84.0,77.0,0.15
mp-2117,TbN,149.0,119.0,0.19
mp-21175,TaGaNi2,187.0,40.0,0.4
mp-2121,ScAl3,84.0,71.0,0.17
mp-21273,FeTe,20.0,12.0,0.25
mp-21306,TiCoSi,181.0,100.0,0.27
mp-21340,HfGePt,177.0,79.0,0.31
mp-21377,Sm,37.0,23.0,0.24
mp-22206,TbCoSi,103.0,62.0,0.25
mp-2221,Zr2Ag,101.0,40.0,0.32
mp-22300,FeCo2Ge,168.0,71.0,0.32
mp-22496,Nd3TlN,35.0,5.0,0.43
mp-22631,Co2N,245.0,88.0,0.34
mp-2264,ErGe,82.0,55.0,0.23
mp-22662,TiGaPt,163.0,57.0,0.34
mp-22736,InCuS2,64.0,25.0,0.32
mp-22811,InCuSe2,53.0,22.0,0.32
mp-22849,BiI3,3.0,2.0,0.27
mp-22887,EuCl2,26.0,11.0,0.31
mp-22903,RbI,10.0,5.0,0.29
mp-22961,Li2ZnCl4,32.0,15.0,0.29
mp-22966,C(ClF)2,2.0,1.0,0.31
mp-23004,CsMgCl3,13.0,5.0,0.33
mp-2302,AsRh2,231.0,73.0,0.36
mp-23052,ZrIN,19.0,15.0,0.19
mp-23067,K2PdCl6,12.0,7.0,0.26
mp-23084,BiPbClO2,44.0,18.0,0.32
mp-23230,PCl3,1.0,0.0,0.26
mp-23260,BaI2,15.0,6.0,0.33
mp-23289,KCl,30.0,8.0,0.38
mp-23425,Cs2PbCl6,8.0,4.0,0.27
mp-24237,ScH2,97.0,63.0,0.23
mp-248,Fe2N,244.0,89.0,0.34
mp-25,N2,1.0,1.0,0.28
mp-25053,Sr2NiMoO6,170.0,70.0,0.32
mp-2517,Ca2Si,37.0,22.0,0.25
mp-2605,CaO,105.0,74.0,0.21
mp-2652,Y2O3,138.0,62.0,0.31
mp-2670,Nb3Ga,165.0,43.0,0.38
mp-2706,SnF4,36.0,30.0,0.17
mp-27243,K2PtBr4,10.0,6.0,0.27
mp-2739,TeO2,5.0,35.0,-0.54
mp-27891,Bi2SO2,44.0,23.0,0.28
mp-27930,Li7Si2,33.0,28.0,0.16
mp-28067,ThIN,27.0,21.0,0.19
mp-28553,Ca2IN,36.0,34.0,0.14
mp-28627,K4Br2O,17.0,9.0,0.27
mp-28793,Mg2C3,91.0,46.0,0.28
mp-29066,Al3Fe2Si3,144.0,89.0,0.24
mp-29241,Ca3SnO,43.0,33.0,0.2
mp-29456,Rb2IN3,27.0,20.0,0.2
mp-29596,Ca3AlN3,93.0,48.0,0.28
mp-29647,SmSb2,59.0,30.0,0.28
mp-2968,Sr(MnSb)2,34.0,17.0,0.28
mp-30057,LiCN,17.0,5.0,0.36
mp-30151,CuAuSe4,29.0,19.0,0.23
mp-30428,BaCu,18.0,8.0,0.31
mp-30451,SrCuBi,40.0,27.0,0.22
mp-30482,Ca3Tl,48.0,97.0,-0.1
mp-30585,HoCu5,126.0,45.0,0.34
mp-30593,ZnCu2Ni,143.0,59.0,0.32
mp-30620,DyRh5,188.0,73.0,0.33
mp-30685,ZrGa3,97.0,72.0,0.2
mp-30780,SrMgSn,36.0,27.0,0.2
mp-30825,PaRh3,211.0,88.0,0.32
mp-30851,Ti3Pt5,202.0,73.0,0.34
mp-30875,Ti2Sn,115.0,60.0,0.28
mp-31080,YAlSi,88.0,63.0,0.21
mp-31182,ErAl2Ni,96.0,59.0,0.25
mp-317,SnRh,139.0,54.0,0.33
mp-3190,Er(FeB)2,117.0,79.0,0.22
mp-3210,Ca(CoP)2,101.0,80.0,0.19
mp-32811,Ag2Te,39.0,13.0,0.35
mp-3349,Sr3Ti2O7,140.0,83.0,0.25
mp-3359,Ba2SnO4,96.0,52.0,0.27
mp-342,SmTe,58.0,19.0,0.35
mp-34467,Zn(GaS2)2,45.0,29.0,0.23
mp-345,HfB,175.0,82.0,0.3
mp-34688,TiO2,182.0,56.0,0.36
mp-352,HfO2,205.0,99.0,0.29
mp-35777,Mg(InTe2)2,23.0,12.0,0.28
mp-35841,Li2CuGe,61.0,38.0,0.24
mp-36066,PNO,54.0,54.0,0.12
mp-362,Ni3S2,127.0,56.0,0.31
mp-364,AlRh,196.0,102.0,0.28
mp-3648,Zn2CuAu,114.0,0.0,0.5
mp-368,P2O3,3.0,2.0,0.23
mp-3792,YAlO3,190.0,111.0,0.25
mp-3808,K2UO4,61.0,30.0,0.29
mp-3834,BaZrO3,149.0,92.0,0.24
mp-39105,MgTa2N3,276.0,201.0,0.21
mp-3933,Mg2PN3,150.0,87.0,0.26
mp-396,YbGa,48.0,33.0,0.22
mp-4090,Ce(SiRh)2,138.0,85.0,0.24
mp-4187,Ge2N2O,118.0,62.0,0.28
mp-44,U,147.0,110.0,0.2
mp-4408,Sm2Zr2O7,162.0,87.0,0.27
mp-45,Ca,17.0,8.0,0.31
mp-470,GeO2,206.0,123.0,0.25
mp-4813,NbAlNi2,181.0,45.0,0.39
mp-4822,Y(SiPd)2,132.0,53.0,0.32
mp-4909,V2NiS4,101.0,59.0,0.26
mp-4950,KCaF3,34.0,32.0,0.14
mp-4973,CeSF,65.0,52.0,0.19
mp-504580,VCuO3,138.0,23.0,0.42
mp-504687,USnTe,66.0,25.0,0.33
mp-5068,DyZrSb,83.0,35.0,0.31
mp-510219,Sn2Ru,118.0,62.0,0.28
mp-510624,SrFeO3,131.0,83.0,0.24
mp-5213,CdSnP2,57.0,29.0,0.28
mp-5223,GdAlO3,185.0,108.0,0.25
mp-5370,ErNbO4,147.0,58.0,0.33
mp-5380,Ca4P2O,57.0,43.0,0.2
mp-542106,SbPd2,127.0,39.0,0.36
mp-5427,Mg2P2O7,116.0,63.0,0.27
mp-546011,YZnAsO,75.0,34.0,0.3
mp-550008,ScBiO3,124.0,83.0,0.23
mp-553308,CsNdO2,66.0,34.0,0.28
mp-553991,Ti(GaO2)4,151.0,70.0,0.3
mp-555678,Na4Ti5O12,131.0,60.0,0.3
mp-556487,K2NaMoF6,81.0,29.0,0.34
mp-558189,Ag3SI,6.0,-10.0,2.05
mp-558432,Na3P(SO)2,28.0,14.0,0.28
mp-559798,NiF2,128.0,40.0,0.36
mp-560663,Rb(CoS)2,50.0,32.0,0.24
mp-560959,KTl2MoF6,14.0,14.0,0.13
mp-561830,Cs2CoS2,17.0,8.0,0.31
mp-567653,Ti3Ni4,163.0,37.0,0.39
mp-567744,SrBr2,17.0,8.0,0.3
mp-567856,MnAsRh,139.0,58.0,0.32
mp-568006,DyFe5,86.0,65.0,0.2
mp-568095,Yb(PRu)2,112.0,90.0,0.18
mp-568746,Bi2Pd,55.0,19.0,0.35
mp-568866,Na6ZnSn2,16.0,9.0,0.27
mp-568912,Be12Nb,133.0,138.0,0.12
mp-569450,LiB6C,197.0,184.0,0.14
mp-569482,LaSi2Ru3,164.0,70.0,0.31
mp-569639,TlCl,20.0,6.0,0.36
mp-569794,Ta,195.0,59.0,0.36
mp-570099,RbVBr3,14.0,2.0,0.44
mp-570157,ZrBrN,15.0,19.0,0.06
mp-571030,TlPd3,133.0,39.0,0.37
mp-571322,Nb3Ge,111.0,-56.0,0.81
mp-571520,Si,80.0,61.0,0.19
mp-574239,Tm3AlC,40.0,16.0,0.32
mp-5798,Al6C3N2,165.0,105.0,0.24
mp-581707,ZrInAu2,121.0,24.0,0.41
mp-604313,Li,9.0,-9.0,1.22
mp-614185,Pb(SN)2,7.0,3.0,0.29
mp-615,YMg,41.0,20.0,0.29
mp-6178,Cs2KTiF6,17.0,-13.0,1.01
mp-621348,TiInAu2,122.0,17.0,0.43
mp-626785,KHO,25.0,8.0,0.35
mp-631269,LiIrRh,133.0,35.0,0.38
mp-631343,LaRe2W,183.0,92.0,0.28
mp-631406,ScTl2W,100.0,-99.0,1.24
mp-631417,ReRuCl2,158.0,6.0,0.48
mp-631633,LaCoTc2,123.0,64.0,0.28
mp-634676,KHS,14.0,7.0,0.28
mp-641526,Fe13Co3,184.0,92.0,0.29
mp-643409,Ba4Y(CuO3)3,104.0,51.0,0.29
mp-669546,AlPd,150.0,64.0,0.31
mp-672388,ThPb,70.0,-1353.0,-1.27
mp-676540,TlSbS2,14.0,6.0,0.3
mp-6781,AgCNO,10.0,3.0,0.35
mp-680677,Sn3Ru2,127.0,58.0,0.3
mp-6812,KBaPO4,54.0,26.0,0.29
mp-684591,Al2O3,139.0,79.0,0.26
mp-684692,IN3,7.0,4.0,0.24
mp-6939,Sr(BIr)2,167.0,72.0,0.31
mp-697133,Cs2CaH4,3.0,14.0,-0.47
mp-697179,ZrH,114.0,24.0,0.4
mp-7361,Sr(CoGe)2,74.0,50.0,0.22
mp-7427,Ba(ZnAs)2,51.0,28.0,0.27
mp-7433,NaCuSe,41.0,20.0,0.29
mp-7486,BaNiS2,60.0,29.0,0.29
mp-752415,NbO2F,136.0,57.0,0.32
mp-752928,LiCoS2,77.0,34.0,0.31
mp-753671,PNO,54.0,56.0,0.12
mp-753708,TiOF,135.0,57.0,0.32
mp-754238,Li2CuBiO4,98.0,54.0,0.27
mp-754349,GdOF,110.0,50.0,0.3
mp-754364,Y2CuO4,145.0,59.0,0.32
mp-754672,TiO2,68.0,24.0,0.34
mp-754777,NaLaO2,90.0,35.0,0.33
mp-755013,Li5TaO5,93.0,68.0,0.21
mp-755298,Li4NbO4,73.0,38.0,0.28
mp-755544,YTlO2,104.0,46.0,0.31
mp-755570,Li(NiS)2,69.0,20.0,0.37
mp-756630,DyAlO3,193.0,113.0,0.25
mp-7569,KAsF6,40.0,13.0,0.35
mp-757233,Gd2Zr2O7,161.0,85.0,0.27
mp-760376,KTiO3,55.0,24.0,0.31
mp-762225,BaCO3,48.0,20.0,0.32
mp-767525,Li6SbS2,31.0,25.0,0.18
mp-771055,EuZrO3,172.0,90.0,0.28
mp-7754,Si2Ru,168.0,92.0,0.27
mp-775906,Y2O3,139.0,65.0,0.3
mp-776456,Ti2O3,213.0,87.0,0.32
mp-779328,NaCu2O3,88.0,22.0,0.38
mp-7859,ZrS,119.0,44.0,0.34
mp-7877,Sr(CuSi)2,81.0,55.0,0.22
mp-788,CoTe,110.0,51.0,0.3
mp-7882,Ba(AgSn)2,47.0,13.0,0.38
mp-7889,Sr2YReO6,127.0,50.0,0.33
mp-7938,KNbS2,73.0,44.0,0.25
mp-8176,RbTlO2,115.0,39.0,0.35
mp-832,HoPd,95.0,32.0,0.35
mp-833,CaPd2,94.0,37.0,0.33
mp-8373,GeP,65.0,-71.0,1.34
mp-850062,LiNiO2,114.0,42.0,0.34
mp-861667,LiSbRh2,163.0,45.0,0.37
mp-861905,LiBiPd2,79.0,12.0,0.43
mp-861943,BPt3,177.0,55.0,0.36
mp-862335,LiAsRh2,163.0,70.0,0.31
mp-862361,Sc2NiOs,141.0,64.0,0.3
mp-8624,K2Sn2O3,23.0,15.0,0.23
mp-862602,ScAlCo2,148.0,91.0,0.24
mp-862747,Sr2PtAu,47.0,22.0,0.3
mp-862788,Er2ZnIn,63.0,31.0,0.29
mp-862884,CaPmPd2,69.0,26.0,0.33
mp-862912,PmHgAu2,82.0,-2.0,0.51
mp-862927,LiPmHg2,53.0,11.0,0.4
mp-862962,CaLaZn2,46.0,25.0,0.27
mp-862990,Pm2AgSn,62.0,21.0,0.34
mp-863673,LiPm2Rh,62.0,21.0,0.35
mp-8637,Mo,243.0,-29.0,0.56
mp-863704,Pm2MgTl,45.0,20.0,0.3
mp-863725,Pm2PdPt,95.0,28.0,0.37
mp-8638,Tc,376.0,163.0,0.31
mp-864675,Yb3N2,79.0,34.0,0.31
mp-864744,HoMgRh2,117.0,49.0,0.31
mp-864839,Zn2PdRh,159.0,65.0,0.32
mp-864883,MgSnPd2,112.0,26.0,0.39
mp-864924,NdMgHg2,55.0,22.0,0.32
mp-864928,BrCl,2.0,-0.0,0.54
mp-864930,LiTiIr2,193.0,79.0,0.32
mp-864972,Mg2PdAu,88.0,37.0,0.32
mp-865092,MgGaNi2,124.0,35.0,0.37
mp-865111,NaSmAu2,59.0,17.0,0.37
mp-865187,MgFeRh2,155.0,73.0,0.3
mp-865240,Lu2MgIn,57.0,25.0,0.31
mp-865406,Lu2ZnAu,85.0,33.0,0.33
mp-865529,Ti2NiIr,195.0,12.0,0.47
mp-865560,Y2AlZn,63.0,41.0,0.23
mp-865562,Be3Ru,182.0,125.0,0.22
mp-865681,TiSiRu2,243.0,130.0,0.27
mp-865716,YbCl2,36.0,14.0,0.32
mp-865733,CoTc3,288.0,144.0,0.29
mp-865807,Ti2MoIr,210.0,89.0,0.32
mp-865808,LiNd2Ir,69.0,25.0,0.34
mp-865856,PaBi3,68.0,26.0,0.33
mp-865874,Li2AgHg,53.0,10.0,0.41
mp-865979,AcMgCd2,42.0,15.0,0.34