material_id,pretty_formula,K_VRH,G_VRH,poisson_ratio
mp-1018144,LaH3,92.0,27.0,0.37
mp-1018154,Hf2Hg,99.0,49.0,0.29
mp-1018689,ErZnIn,64.0,40.0,0.24
mp-1019280,SrZnPb,103.0,31.0,0.36
mp-1023127,Ba4Cu3PbO9,93.0,44.0,0.3
mp-1024071,SiPt2,186.0,35.0,0.41
mp-1025185,Cs2CaCl4,12.0,9.0,0.19
mp-1025193,HfGa5Co,87.0,47.0,0.27
mp-1025349,Sr2ZrO4,137.0,71.0,0.28
mp-1025409,TmPt,114.0,35.0,0.36
mp-1025473,Li2NdGe,45.0,27.0,0.25
mp-1025500,ZnCu2SnS4,67.0,29.0,0.31
mp-1025571,WS2,19.0,2.0,0.46
mp-1029403,RbGe2N3,129.0,83.0,0.23
mp-1029550,Ca2CrN3,94.0,30.0,0.35
mp-1029595,Na3OsN2,41.0,21.0,0.28
mp-1029699,Cs2CN2,18.0,4.0,0.39
mp-1029719,Ca3MoN3,56.0,23.0,0.32
mp-1029730,Ca4HfN4,88.0,42.0,0.3
mp-10366,Nb2Co3Si,228.0,113.0,0.29
mp-10523,CeSiO4,144.0,55.0,0.33
mp-10630,Sb,58.0,2.0,0.49
mp-10698,Ba(GeRh)2,70.0,37.0,0.27
mp-10712,ScRh3C,215.0,90.0,0.32
mp-10718,Sm3SnC,37.0,9.0,0.38
mp-10744,Si3Pt2,161.0,25.0,0.43
mp-1077353,TiH2,141.0,31.0,0.4
mp-10854,Tb(BC)2,180.0,126.0,0.22
mp-10873,ScAlAu2,114.0,23.0,0.41
mp-10876,Ca3Al7Cu2,65.0,46.0,0.21
mp-10879,CeAl,50.0,7.0,0.43
mp-10930,TbSF,107.0,55.0,0.28
mp-10985,RbCu3S2,43.0,20.0,0.3
mp-11,As,40.0,28.0,0.22
mp-11023,ScAuO2,134.0,43.0,0.36
mp-11190,VSi2,175.0,147.0,0.17
mp-11269,BaSn3Pd,55.0,25.0,0.3
mp-11276,BeRh,207.0,100.0,0.29
mp-11400,ScGaNi2,130.0,49.0,0.33
mp-11411,ScGa,76.0,42.0,0.26
mp-11436,Er(VGa2)2,127.0,73.0,0.26
mp-11457,HfRh,179.0,26.0,0.43
mp-11520,YNiSb,94.0,55.0,0.25
mp-11572,TaTc,255.0,130.0,0.28
mp-11733,Lu3InN,98.0,71.0,0.21
mp-12317,SrCN2,57.0,17.0,0.37
mp-1235,TiIr,228.0,81.0,0.34
mp-12359,AgSbTe2,52.0,19.0,0.34
mp-124,Ag,88.0,23.0,0.38
mp-1250,Lu2In,59.0,32.0,0.27
mp-12523,YbPO4,98.0,48.0,0.29
mp-12594,TiIr,218.0,78.0,0.34
mp-12602,PrZn5,64.0,34.0,0.27
mp-1274,CoS,160.0,49.0,0.36
mp-12762,PrB6,174.0,115.0,0.23
mp-13032,MgS,55.0,19.0,0.34
mp-1306,ThAl3,89.0,40.0,0.31
mp-13079,Mn2AlCo,158.0,103.0,0.23
mp-13149,BaAlSi,49.0,37.0,0.19
mp-13302,LuSnAu,77.0,40.0,0.28
mp-13311,SrAlGe,47.0,35.0,0.2
mp-1332,Si3Mo5,241.0,120.0,0.29
mp-1342,BaO,68.0,38.0,0.27
mp-13431,Dy2AlCo2,96.0,32.0,0.35
mp-135,Li,14.0,4.0,0.36
mp-136,Fe,294.0,185.0,0.24
mp-13801,Tl2Pt2O7,168.0,83.0,0.29
mp-13907,CdSnF6,15.0,19.0,0.06
mp-1401,ZrZn2,102.0,59.0,0.26
mp-14099,ZnAgF3,81.0,25.0,0.36
mp-1412,Ti3Sb,120.0,25.0,0.4
mp-1418,FeNi3,203.0,96.0,0.3
mp-14793,Mg2SiPt,99.0,60.0,0.25
mp-14815,TaTe5Pt,20.0,12.0,0.26
mp-1502,Al2Pt,129.0,39.0,0.36
mp-15607,Ca(BC)2,125.0,82.0,0.23
mp-15669,Ti3Te4,60.0,38.0,0.24
mp-1567,ThNi5,184.0,64.0,0.34
mp-15724,KNa2Sb,20.0,12.0,0.24
mp-15778,MgNiSb,86.0,42.0,0.29
mp-15896,Cu2SiSe3,63.0,28.0,0.3
mp-1591,Al4C3,160.0,113.0,0.21
mp-16253,BaCaSi,31.0,19.0,0.25
mp-16254,BaCuP,57.0,37.0,0.23
mp-16259,Ca(GeIr)2,88.0,67.0,0.2
mp-1630,Zr3Hg,104.0,58.0,0.27
mp-1648,Al12Re,96.0,79.0,0.18
mp-165,Si,89.0,62.0,0.22
mp-16524,ScAlPd2,131.0,41.0,0.36
mp-1658,Tl2O3,109.0,32.0,0.37
mp-1678,PuRh3,219.0,55.0,0.38
mp-1684,ZnAu,114.0,18.0,0.42
mp-169,C,117.0,92.0,0.19
mp-1730,BaGe,31.0,18.0,0.25
mp-1854,EuPd2,86.0,37.0,0.31
mp-1860,LaSi,69.0,41.0,0.25
mp-18765,Na2NiO2,59.0,-8.0,0.58
mp-18816,Fe2SiO4,181.0,72.0,0.32
mp-1885,AlIr,229.0,116.0,0.28
mp-189,SiRu,204.0,99.0,0.29
mp-1890,BMo,311.0,200.0,0.24
mp-19017,LiFePO4,91.0,48.0,0.28
mp-1903,BaAl4,51.0,35.0,0.22
mp-19052,K3VO4,34.0,11.0,0.35
mp-1925,ZrS,131.0,51.0,0.33
mp-19328,NaWO3,191.0,77.0,0.32
mp-19330,CaMoO4,75.0,33.0,0.31
mp-19365,Ba3V2O8,69.0,29.0,0.31
mp-1944,CoP3,149.0,115.0,0.19
mp-19713,Sc3In,63.0,39.0,0.24
mp-19729,EuAsAu,61.0,31.0,0.28
mp-19734,MgPbF6,20.0,23.0,0.08
mp-19820,TmPb3,50.0,-2.0,0.52
mp-19862,EuSi2,61.0,22.0,0.34
mp-19904,ZrNi2Sb,137.0,37.0,0.38
mp-20066,CO2,5.0,3.0,0.27
mp-20097,Pt3PbC,111.0,17.0,0.43
mp-20181,Ce2C3,116.0,70.0,0.25
mp-2019,LaRu2,143.0,-60.0,0.74
mp-20202,MgSn4Ru,74.0,49.0,0.23
mp-20351,InP,59.0,31.0,0.28
mp-20485,InSe,10.0,7.0,0.23
mp-20545,Cu3AsS4,74.0,26.0,0.34
mp-20698,LiCoAs,54.0,30.0,0.27
mp-20730,HfCo2Sn,164.0,78.0,0.3
mp-20820,Pb(NO3)2,31.0,9.0,0.37
mp-20928,Sb2Ru,116.0,77.0,0.23
mp-20979,TmMgIn,54.0,41.0,0.2
mp-2102,PrGe,63.0,47.0,0.2
mp-21024,SrIn2Pd,49.0,24.0,0.29
mp-21185,Cd3P2,50.0,16.0,0.35
mp-21215,InPd,111.0,28.0,0.38
mp-21272,ErNiSb,82.0,59.0,0.21
mp-2134,ErAl3,79.0,64.0,0.18
mp-21342,V3Sn,163.0,22.0,0.44
mp-21391,InAs,64.0,38.0,0.25
mp-21503,YMgIn,54.0,40.0,0.2
mp-21521,Cs2PbO3,35.0,12.0,0.35
mp-2179,TiRe,232.0,71.0,0.36
mp-21845,FePd3,174.0,71.0,0.32
mp-21865,FeCu2Sn,101.0,-23.0,0.62
mp-220,ThNi2,107.0,-1.0,0.51
mp-2211,V3Pt,218.0,94.0,0.31
mp-22154,In2Au,52.0,18.0,0.35
mp-22302,ZrVP,177.0,107.0,0.25
mp-2242,GeS,21.0,17.0,0.18
mp-22446,Li2PrSb2,39.0,22.0,0.26
mp-2247,AgN3,16.0,5.0,0.37
mp-22585,GeRh2,192.0,64.0,0.35
mp-2273,Ag3Sb,65.0,17.0,0.38
mp-2284,AgF2,32.0,11.0,0.34
mp-22908,BiCl3,4.0,4.0,0.14
mp-22919,AgI,32.0,11.0,0.35
mp-23041,SbSI,7.0,3.0,0.29
mp-23080,AlBiO3,191.0,118.0,0.24
mp-23250,UCl6,1.0,0.0,0.34
mp-23264,TiI3,4.0,2.0,0.28
mp-23302,RbI,31.0,6.0,0.4
mp-2379,CoSi2,177.0,64.0,0.34
mp-2390,YbP,48.0,-7.0,0.58
mp-2396,HoCo2,120.0,29.0,0.39
mp-24201,H2S,79.0,-343.0,-4.35
mp-24292,Sr2H6Ru,17.0,30.0,-0.05
mp-2452,P2O5,40.0,22.0,0.27
mp-2459,YbIn,39.0,17.0,0.31
mp-2469,CdS,53.0,17.0,0.35
mp-24728,VH2,175.0,91.0,0.28
mp-2554,Al3V,120.0,100.0,0.17
mp-2557,Zr2Al,103.0,53.0,0.28
mp-2578,NiTe2,49.0,23.0,0.3
mp-260,CrB,266.0,223.0,0.17
mp-2600,BaTe,33.0,14.0,0.31
mp-2633,GeO2,236.0,149.0,0.24
mp-2639,Na3N,5.0,10.0,-0.13
mp-2642,CdAg,80.0,9.0,0.45
mp-27207,K2MgCl4,22.0,11.0,0.28
mp-27425,Sr(HO)2,40.0,22.0,0.27
mp-2750,Cr2Te3,41.0,26.0,0.24
mp-27608,Be4TeO7,183.0,111.0,0.25
mp-27666,IrCl3,12.0,2.0,0.43
mp-27793,Nb2Se,122.0,57.0,0.3
mp-27848,TiIN,24.0,18.0,0.2
mp-28230,TlSbS2,13.0,5.0,0.33
mp-28698,Na4IrO4,14.0,22.0,-0.02
mp-28810,Na2CS3,14.0,6.0,0.32
mp-2893,Dy(SiRh)2,163.0,88.0,0.27
mp-2909,HoAlNi,73.0,30.0,0.32
mp-29733,MgNiBi,66.0,33.0,0.29
mp-30004,Rb4Br2O,18.0,8.0,0.31
mp-30349,Li2AgPb,94.0,29.0,0.36
mp-3035,Ce(FeSi)2,144.0,76.0,0.28
mp-30360,TmAg3,74.0,7.0,0.45
mp-30366,Ca3Au,26.0,11.0,0.32
mp-30383,Hf2Au,134.0,59.0,0.31
mp-30437,CaSnPd,67.0,25.0,0.33
mp-30472,Ca2GaCu2,50.0,24.0,0.29
mp-30582,HfCuHg2,83.0,6.0,0.46
mp-306,B2O3,33.0,36.0,0.1
mp-30657,TiGaNi2,166.0,40.0,0.39
mp-30798,NbZn2,141.0,82.0,0.26
mp-30954,GaI3,1.0,1.0,0.11
mp-31297,ScInPt,109.0,37.0,0.35
mp-31330,NdInRh,89.0,30.0,0.35
mp-3186,TbB2Ru3,209.0,104.0,0.29
mp-3196,NdGaO3,162.0,76.0,0.3
mp-328,Zr2Ni,122.0,22.0,0.42
mp-3336,LaGaO3,179.0,79.0,0.31
mp-3415,Yb(SiRu)2,130.0,68.0,0.28
mp-3427,LiAlO2,93.0,52.0,0.26
mp-34611,ZnAgAs,65.0,-24.0,0.71
mp-3513,Dy2Al3Si2,84.0,65.0,0.19
mp-3521,NaBF4,26.0,12.0,0.3
mp-357,SmPd3,123.0,50.0,0.32
mp-3736,ZrAlCu2,128.0,51.0,0.33
mp-3804,Sr(PRu)2,79.0,57.0,0.21
mp-3807,Al2CdSe4,63.0,25.0,0.32
mp-3821,K2PtF6,26.0,10.0,0.33
mp-4056,CaSc2O4,144.0,82.0,0.26
mp-4106,YbSnPd,69.0,25.0,0.34
mp-4120,CaCuAs,63.0,43.0,0.22
mp-4227,BaVS3,47.0,7.0,0.43
mp-4428,CaSiO3,75.0,39.0,0.28
mp-4824,NaZnP,44.0,26.0,0.25
mp-4972,LuInCu2,96.0,37.0,0.33
mp-501,TaSe2,23.0,16.0,0.21
mp-504908,In2TeO6,142.0,60.0,0.32
mp-505005,CeSiOs,97.0,43.0,0.31
mp-5063,YAl3Ni2,113.0,68.0,0.25
mp-507,SiNi2,203.0,58.0,0.37
mp-510281,FeCuO2,143.0,50.0,0.34
mp-510437,In3Pd2,89.0,37.0,0.32
mp-510441,YInPt2,121.0,37.0,0.36
mp-5129,Y(CoSi)2,145.0,93.0,0.24
mp-5190,ZnSnAs2,52.0,30.0,0.26
mp-5221,HfAlCo2,172.0,89.0,0.28
mp-5239,NdSiRu,82.0,47.0,0.26
mp-530274,Al23B50,186.0,122.0,0.23
mp-540809,Zr2Fe12P7,216.0,127.0,0.25
mp-541487,TlPt2Se3,24.0,14.0,0.25
mp-541989,Na2CN2,41.0,18.0,0.31
mp-542812,GaTe,10.0,7.0,0.22
mp-546898,Sr2Cu(BrO)2,25.0,16.0,0.23
mp-5473,CaMgSi,50.0,40.0,0.18
mp-549720,NbI2O,13.0,8.0,0.23
mp-551736,K4CO4,22.0,-153.0,-2.14
mp-554089,SiO2,20.0,35.0,-0.06
mp-556125,Na2BHO3,46.0,20.0,0.31
mp-556235,CaCO3,75.0,32.0,0.31
mp-556417,Rb2NiF6,14.0,9.0,0.23
mp-558046,KMnF3,58.0,25.0,0.31
mp-558798,BiPO4,69.0,39.0,0.26
mp-559959,Rb2CoF4,40.0,10.0,0.38
mp-559976,Ta2CS2,39.0,27.0,0.22
mp-560023,NiSnF6,31.0,28.0,0.16
mp-561442,Y2Hf2O7,171.0,96.0,0.26
mp-561536,NaMgBO3,104.0,36.0,0.34
mp-567313,Te,22.0,15.0,0.22
mp-567574,DyAgGe,76.0,52.0,0.22
mp-567655,Sr2C(NCl)2,45.0,18.0,0.33
mp-567771,Ba(Si3N4)2,152.0,104.0,0.22
mp-567996,Nb5Si3,191.0,105.0,0.27
mp-568388,BiI,4.0,2.0,0.24
mp-568466,LiInSn,56.0,53.0,0.14
mp-568630,LuRu2,186.0,49.0,0.38
mp-568931,YbNiSb,69.0,33.0,0.29
mp-569270,V3B4,278.0,232.0,0.17
mp-569567,C,435.0,521.0,0.07
mp-569568,Ta3AlC2,225.0,159.0,0.21
mp-569600,Ge3As4,47.0,29.0,0.25
mp-569916,Al3Pt2,127.0,12.0,0.46
mp-570014,YbSbPt,77.0,27.0,0.34
mp-570428,Sc3In,62.0,38.0,0.25
mp-570611,PrInAu2,76.0,13.0,0.42
mp-570769,CaInCu4,87.0,37.0,0.31
mp-571059,YCd3,55.0,19.0,0.35
mp-571126,Ti2BRh6,228.0,113.0,0.29
mp-571352,TmB6,170.0,48.0,0.37
mp-5794,Zn(GaO2)2,169.0,78.0,0.3
mp-580236,EuCd,25.0,18.0,0.21
mp-5853,LiSi2N3,159.0,121.0,0.2
mp-603930,MgSiO3,104.0,60.0,0.26
mp-614444,ZrZn,89.0,-26.0,0.66
mp-618309,Bi2AuO5,121.0,50.0,0.32
mp-622693,Mn2NiO4,161.0,425.0,-0.2
mp-625094,Cd(HO)2,57.0,20.0,0.34
mp-631254,KMnRu,45.0,-20.0,0.76
mp-631479,CaHfBe,61.0,22.0,0.34
mp-631563,TlCoAs2,117.0,-66.0,0.85
mp-631570,BaTaB,63.0,109.0,-0.05
mp-631572,GaReAs,89.0,-198.0,4.87
mp-639755,Rb,3.0,-1.0,0.72
mp-639910,Y(Sn3Ru2)2,120.0,56.0,0.3
mp-645159,FeBiO3,162.0,70.0,0.31
mp-6493,CaMgSiO4,101.0,54.0,0.27
mp-672250,Ti3Ga,91.0,-268.0,77.93
mp-674334,Ca2SiO4,87.0,42.0,0.29
mp-675477,Sn4Bi2Se7,31.0,18.0,0.26
mp-676861,AlSbO4,198.0,119.0,0.25
mp-695998,K2ZnH4,17.0,11.0,0.24
mp-6982,ErB2Rh2C,200.0,39.0,0.41
mp-7038,TlPd2Se3,21.0,12.0,0.26
mp-7077,KAuS,5.0,3.0,0.25
mp-7130,ScRu3C,234.0,140.0,0.25
mp-715262,FeO,120.0,42.0,0.34
mp-7168,TbPPt,118.0,49.0,0.32
mp-754027,NaSmO2,88.0,49.0,0.27
mp-754046,PrTlO3,65.0,18.0,0.37
mp-754110,SmAgO2,100.0,27.0,0.38
mp-754262,Zn2As2O7,104.0,26.0,0.38
mp-754333,TiO,228.0,155.0,0.22
mp-754352,Na3CuO2,50.0,27.0,0.27
mp-754495,NbNO,139.0,52.0,0.33
mp-754628,WN2,121.0,26.0,0.4
mp-754727,LiNiS2,67.0,33.0,0.29
mp-755920,Ti3NO4,191.0,78.0,0.32
mp-756134,ZrSeO,143.0,75.0,0.28
mp-758104,Mn11Pd21,142.0,56.0,0.33
mp-7599,BeO,171.0,139.0,0.18
mp-760492,Na4PtO4,55.0,30.0,0.27
mp-761390,TaFeO4,199.0,96.0,0.29
mp-7622,KSO4,20.0,10.0,0.29
mp-763,MgB2,148.0,118.0,0.19
mp-772,TmSi2,87.0,-15.0,0.59
mp-772099,Cd(CuO2)2,124.0,48.0,0.33
mp-775909,ZrO2,194.0,91.0,0.3
mp-779545,Na3CuO2,43.0,17.0,0.32
mp-7897,K3P,17.0,8.0,0.3
mp-7907,Al2ZnSe4,38.0,24.0,0.24
mp-7917,HfGeSe,112.0,74.0,0.23
mp-7986,CaSnO3,94.0,86.0,0.15
mp-8090,Cu2P2O7,67.0,41.0,0.25
mp-8096,ZrCuF6,93.0,7.0,0.46
mp-817,TmTl3,46.0,11.0,0.39
mp-8267,KPS3,9.0,1.0,0.45
mp-8543,Na3AlAs2,23.0,13.0,0.27
mp-861660,LiNdHg2,47.0,4.0,0.46
mp-861736,LiSbPd2,102.0,11.0,0.45
mp-862339,Sc2GaAg,80.0,38.0,0.29
mp-862360,Sc2NiIr,147.0,48.0,0.35
mp-862364,Sc2OsPt,155.0,70.0,0.3
mp-862698,Ac2SiAu,62.0,16.0,0.38
mp-862800,PrI3,3.0,1.0,0.27
mp-862855,PaO2,148.0,49.0,0.35
mp-862873,AcAgHg2,52.0,5.0,0.46
mp-862934,Li2PmTl,38.0,31.0,0.18
mp-864631,LiNbRh2,175.0,65.0,0.33
mp-864641,HoCl2,50.0,20.0,0.32
mp-864715,HfInCo2,160.0,76.0,0.29
mp-864763,LiYb2Rh,42.0,19.0,0.3
mp-864784,LiSnRh2,156.0,78.0,0.29
mp-864794,ZnAg3,90.0,20.0,0.4
mp-864857,NbZnCo2,185.0,56.0,0.36
mp-864889,ZrZn3,100.0,39.0,0.33
mp-864909,HfAlRu2,195.0,80.0,0.32
mp-864923,MgZnPd2,111.0,-1.0,0.5
mp-864948,MnGaPt2,169.0,-34.0,0.61
mp-864976,Mg2AgIr,100.0,29.0,0.37
mp-865051,NaCa2Tl,22.0,15.0,0.22
mp-865081,NaAcTe2,40.0,12.0,0.37
mp-865119,NaPrHg2,41.0,14.0,0.35
mp-865181,EuGeO3,163.0,72.0,0.31
mp-865252,TmSnRh2,150.0,97.0,0.23
mp-865282,Tm2AgRu,97.0,38.0,0.33
mp-865301,TmBr3,4.0,2.0,0.26
mp-865513,YSbPd2,105.0,-10.0,0.55
mp-865558,AcTe3,48.0,21.0,0.31
mp-865656,TiMn2W,243.0,120.0,0.29
mp-865707,TiSnRh2,180.0,70.0,0.33
mp-865713,Li2TlBi,32.0,23.0,0.21
mp-865731,Li2HgPd,52.0,13.0,0.39
mp-865804,TaZnRh2,217.0,-139.0,0.91
mp-865847,Lu2CuPt,101.0,39.0,0.33
mp-865863,Li2TlPd,50.0,14.0,0.37
mp-865877,Ti2RePt,209.0,78.0,0.33
mp-865894,YbPmAu2,68.0,24.0,0.34
mp-866002,YbTl2Cd,36.0,15.0,0.32
mp-866033,AlZnRh2,185.0,90.0,0.29
mp-866063,NdDyMg2,36.0,21.0,0.26
mp-866128,NaTmTl2,38.0,25.0,0.23
mp-866154,TiBeIr2,241.0,121.0,0.28
mp-866522,Ca2SnS4,48.0,23.0,0.29
mp-867121,LiY2Pt,72.0,30.0,0.32
mp-867196,LiCd2Pd,68.0,16.0,0.39
mp-867270,Be2CoPt,207.0,111.0,0.27
mp-867275,BeVOs2,280.0,112.0,0.32
mp-867279,DyPaRu2,139.0,-3.0,0.51
mp-867744,LiTi3O4,194.0,88.0,0.3
mp-867794,Sc2CuIr,125.0,43.0,0.35
mp-867826,DyMgHg2,60.0,25.0,0.32
mp-867872,LiCdAg2,54.0,8.0,0.43
mp-867924,LiCdPd2,90.0,21.0,0.39
mp-8895,Ca2B4Rh5,144.0,81.0,0.26
mp-8936,SnSe,6.0,10.0,-0.06
mp-8938,Si2Mo,207.0,149.0,0.21
mp-8978,CsNbN2,96.0,30.0,0.36
mp-8994,Rb2NbF6,23.0,11.0,0.3
mp-8995,Cs2NbF6,20.0,9.0,0.31
mp-9029,Ca3VN3,87.0,50.0,0.26
mp-903,ZrCr2,181.0,56.0,0.36
mp-9069,K2NaAlAs2,19.0,16.0,0.18
mp-910,NbC,300.0,197.0,0.23
mp-924128,HfNiSn,105.0,80.0,0.19
mp-9385,RbAu3Se2,5.0,5.0,0.12
mp-9486,K2AlF5,26.0,14.0,0.27
mp-9582,Yb(ZnP)2,71.0,49.0,0.22
mp-9587,TaMoN,290.0,163.0,0.26
mp-961680,NbAlPt,142.0,6.0,0.48
mp-961726,NbGeRh,124.0,-13.0,0.56
mp-962073,KBaSn,14.0,-0.0,0.52
mp-971682,Si3N2,140.0,72.0,0.28
mp-971922,DyYAl2,67.0,36.0,0.27
mp-972327,Zr2CoOs,144.0,68.0,0.3
mp-972845,SiMo,199.0,103.0,0.28
mp-972941,NaBi3,32.0,8.0,0.39
mp-973250,KLa3,22.0,7.0,0.36
mp-973374,LiMg2,28.0,13.0,0.3
mp-973434,Hf2IrRu,167.0,524.0,-0.27
mp-974315,RuI,61.0,9.0,0.43
mp-974527,NdSmZn2,53.0,25.0,0.3
mp-974565,ReP3,204.0,55.0,0.38
mp-974641,K3Tl,39.0,3.0,0.46
mp-974740,NdBiO3,107.0,24.0,0.4
mp-975050,Rb3Co,33.0,-6.0,0.59
mp-975385,RbBO3,228.0,242.0,0.11
mp-975387,RbBaO3,28.0,5.0,0.42
mp-975588,PuPtO3,119.0,7.0,0.47
mp-975801,PrTlAg2,63.0,16.0,0.38
mp-975882,Li3Cu,11.0,9.0,0.19
mp-9761,ReO3,183.0,106.0,0.26
mp-976341,Nd2ZnAg,54.0,23.0,0.32
mp-976422,Hf3C,113.0,39.0,0.35
mp-976751,Nd3Zr,39.0,20.0,0.28
mp-977184,NpTcO3,213.0,42.0,0.41
mp-977404,Nd2AgIr,90.0,21.0,0.39
mp-977428,YbAl2Cu,68.0,41.0,0.25
mp-977553,Yb2PtAu,67.0,28.0,0.32
mp-978265,Mg2ZnPd,69.0,35.0,0.28
mp-978490,SiPdO3,221.0,74.0,0.35
mp-978499,SiAs3,68.0,8.0,0.44
mp-978851,SrAsO3,117.0,85.0,0.21
mp-978881,SnAs3,59.0,-33.0,0.85
mp-979287,TbLuHg2,66.0,21.0,0.35
mp-979962,AcYbCd2,41.0,18.0,0.31
mp-980068,YbSmPd2,70.0,25.0,0.34
mp-980669,TmLuCo2,86.0,45.0,0.28
mp-981547,PrH3,84.0,42.0,0.29
mp-982595,Na3Re,25.0,-3.0,0.56
mp-983152,Li3Re,44.0,21.0,0.3
mp-983230,Ga3B,67.0,-37.0,0.85
mp-983412,Ga3Au,55.0,-21.0,0.72
mp-985292,AgBO3,179.0,25.0,0.43
mp-989399,Ca6Al2NF,41.0,19.0,0.3
mp-989566,Rb2InGaF6,41.0,6.0,0.43
mp-989609,YWN3,144.0,72.0,0.29
mp-989642,Cs2NaAlH6,88.0,13.0,0.43
mp-996161,Nb3AlC2,203.0,137.0,0.22
mp-996981,TlAuO2,98.0,18.0,0.41
mp-996987,LiCuO2,80.0,42.0,0.28
mp-996988,LiAgO2,58.0,7.0,0.44
mp-997037,CdAuO2,119.0,32.0,0.37
mp-997042,TlCuO2,17.0,8.0,0.29
mp-998552,BaHfO3,159.0,103.0,0.23
mp-998860,Al,69.0,-258.0,-7.22
mp-998893,YC,150.0,69.0,0.3
mp-998901,ThC,138.0,-626.0,-3.94
mp-998968,TiMo,140.0,32.0,0.39
mp-998971,TiFeCoSi,177.0,85.0,0.29
mp-999257,Sc2MnC,115.0,45.0,0.33
mp-999495,Na3N,29.0,9.0,0.36
mvc-13598,YBiO3,111.0,20.0,0.41
mvc-13747,Zn(CoN)2,152.0,30.0,0.41
mvc-15935,AlAgO3,146.0,59.0,0.32
mp-10003,Nb4CoSi,191.0,97.0,0.28
mp-1001918,HfC,212.0,-200.0,1.19
mp-1002209,ReN,281.0,-338.0,1.51
mp-10025,SiRu2,257.0,102.0,0.32
mp-10027,TiSe,84.0,52.0,0.24
mp-10049,MnAsRu,163.0,68.0,0.32
mp-1006882,CdC,81.0,10.0,0.44
mp-1007819,CoW,210.0,128.0,0.25
mp-1008282,Cr3Fe,38.0,83.0,-0.13
mp-1008349,Co3Ni,205.0,105.0,0.28
mp-1008490,BiI3,36.0,1.0,0.49
mp-1008526,B2CN,292.0,193.0,0.23
mp-1008528,B2AsP,151.0,140.0,0.14
mp-1008556,AlGaN2,184.0,112.0,0.25
mp-1008805,ReC2,326.0,203.0,0.24
mp-1008826,OsN2,390.0,76.0,0.41
mp-1009005,IrN,358.0,26.0,0.47
mp-1009495,OsN,347.0,-75.0,0.62
mp-1009538,PdC,178.0,19.0,0.45
mp-1009878,ZrC,191.0,-164.0,1.1
mp-1013582,Ba3Sb2,20.0,11.0,0.27
mp-1013714,Ba3SbAs,19.0,10.0,0.28
mp-10149,InSb,50.0,13.0,0.38
mp-1016850,BaRhO3,131.0,54.0,0.32
mp-1017467,CaMnO3,47.0,97.0,-0.11
mp-1018100,AlSb,49.0,28.0,0.26
mp-1018132,AlBi,37.0,22.0,0.25
mp-1018645,YPt3C,198.0,-76.0,0.72
mp-1018709,Hf2GaSb3,88.0,64.0,0.21
mp-1018717,HfSb2,92.0,37.0,0.32
mp-1018732,HoTe2,59.0,25.0,0.32
mp-1018810,Na2Cl,12.0,3.0,0.38
mp-1021328,H4C,1.0,0.0,0.3
mp-1021672,Sr2CuC(NO)2,75.0,20.0,0.37
mp-1025077,TbSe2,76.0,30.0,0.32
mp-1025248,TlPd5Se,119.0,34.0,0.37
mp-1025266,Tb2Cr2C3,149.0,68.0,0.3
mp-1025437,CeBi2SeO4,98.0,28.0,0.37
mp-1025441,Ta2AlC,194.0,122.0,0.24
mp-10281,ZnS,69.0,33.0,0.29
mp-1029368,Mg2VN3,128.0,54.0,0.31
mp-1029832,Ca2NbN3,79.0,-1.0,0.51
mp-10373,Cr3PdN,225.0,135.0,0.25
mp-10469,NbSiPt,215.0,81.0,0.33
mp-10709,ReC,359.0,-230.0,0.91
mp-10728,PdO,136.0,-3.0,0.51
mp-10777,RbCeSe2,31.0,19.0,0.25
mp-10785,RbLuSe2,37.0,24.0,0.23
mp-11104,HoInRh,95.0,33.0,0.35
mp-1115,PtSe2,18.0,11.0,0.24
mp-11236,MgZnAg2,76.0,19.0,0.39
mp-11318,CePt3,162.0,59.0,0.34
mp-11329,P2W,189.0,113.0,0.25
mp-11343,Th,62.0,133.0,-0.12
mp-1140,NdCu5,106.0,27.0,0.38
mp-11418,TbGa3,66.0,38.0,0.26
mp-11583,Zr2SN2,159.0,68.0,0.31
mp-11621,ZnNiSb,102.0,35.0,0.35
mp-1169,ScCu,81.0,43.0,0.28
mp-11705,Dy2Fe2Si2C,127.0,83.0,0.23
mp-11808,ScNi4Sn,152.0,55.0,0.34
mp-11869,HfSnPd,122.0,58.0,0.3
mp-11957,CaSn2Ir,77.0,38.0,0.29
mp-12087,Cu2S,97.0,22.0,0.39
mp-12480,ScPPt,149.0,68.0,0.3
mp-12571,HfBeSi,148.0,118.0,0.18
mp-12605,ReSi2,233.0,121.0,0.28
mp-12752,Zr4Al3,108.0,77.0,0.21
mp-12761,BeAu2,137.0,30.0,0.4
mp-12778,VOs,284.0,115.0,0.32
mp-1299,SiPt2,203.0,67.0,0.35
mp-13117,CuN,206.0,28.0,0.44
mp-13121,CeGe3Rh,96.0,37.0,0.33
mp-13132,LaN,118.0,-31.0,0.64
mp-13173,PtN,203.0,46.0,0.4
mp-133,Sb,56.0,25.0,0.3
mp-13446,Co2P,225.0,72.0,0.36
mp-1345,CaP,49.0,33.0,0.22
mp-13456,ZnS,70.0,33.0,0.29
mp-13480,Cu3N,69.0,-96.0,1.81
mp-13503,ScZn2,81.0,48.0,0.25
mp-13682,PdS2,22.0,17.0,0.2
mp-1378,LiC,42.0,29.0,0.22
mp-13815,Rb2NaErF6,31.0,19.0,0.25
mp-1402,SmNi2,94.0,38.0,0.32
mp-1462,Sn2Au,58.0,18.0,0.36
mp-1479,BP,161.0,162.0,0.12
mp-14797,RbPt2Se3,25.0,12.0,0.29
mp-15226,CrWN2,262.0,142.0,0.27
mp-1557,Mg3Au,57.0,30.0,0.28
mp-15649,As2Ir,152.0,96.0,0.24
mp-15856,DyRh3C,200.0,78.0,0.33
mp-15951,BeF2,20.0,25.0,0.05
mp-1598,Na3P,26.0,14.0,0.27
mp-16220,Si,62.0,37.0,0.25
mp-16371,ThGe2,83.0,48.0,0.26
mp-1777,Li15Ge4,28.0,19.0,0.22
mp-1778,BeO,139.0,130.0,0.14
mp-1783,MnS,56.0,15.0,0.38
mp-1791,Al5Rh2,131.0,77.0,0.26
mp-1808,Ti2Ni,141.0,36.0,0.38
mp-1828,ThOs2,213.0,28.0,0.44
mp-18778,Zr(WO4)2,92.0,29.0,0.36
mp-190,ReO3,243.0,126.0,0.28
mp-19138,BaNiO3,85.0,24.0,0.37
mp-1921,ThTe,82.0,51.0,0.24
mp-19292,Co(AsO3)2,143.0,73.0,0.28
mp-19331,MnNiO3,175.0,89.0,0.28
mp-20211,Mn3Si,204.0,99.0,0.29
mp-20315,Ti2InC,127.0,96.0,0.2
mp-20337,ZrPbO3,119.0,46.0,0.33
mp-20560,CeS,30.0,17.0,0.26
mp-20563,Ba(CoAs)2,69.0,36.0,0.28
mp-2058,Ni3B,225.0,82.0,0.34
mp-20581,Ca3In,25.0,13.0,0.27
mp-20586,VCo2Si,213.0,75.0,0.34
mp-20648,V2C,244.0,117.0,0.29
mp-20729,LaIn3,179.0,11.0,0.47
mp-20862,CoSe2,106.0,55.0,0.28
mp-20935,ZrSnIr,160.0,65.0,0.32
mp-21005,GdIn,381.0,31.0,0.46
mp-2108,Ti5Si3,139.0,94.0,0.22
mp-21188,CeNi,73.0,14.0,0.41
mp-21211,InFeCo2,232.0,45.0,0.41
mp-21214,PbSe,15.0,-32.0,4.05
mp-21316,TaSiIr,259.0,125.0,0.29
mp-21366,Yb(GeRu)2,103.0,49.0,0.29
mp-214,ZrRu,183.0,81.0,0.31
mp-21418,MnSnPt,108.0,26.0,0.39
mp-21455,EuAlO3,175.0,105.0,0.25
mp-21467,TiCo2Sn,168.0,74.0,0.31
mp-22033,Ti5Sb3,111.0,46.0,0.32
mp-22191,HfFeGe,197.0,91.0,0.3
mp-22220,LaLuO3,146.0,71.0,0.29
mp-22493,YInAu2,89.0,22.0,0.39
mp-22580,ZrGaNi2,152.0,31.0,0.41
mp-22617,YNiSn,91.0,42.0,0.3
mp-22725,TiInCu2,120.0,46.0,0.33
mp-22862,NaCl,23.0,14.0,0.24
mp-2291,Si2Ni,150.0,32.0,0.4
mp-22934,K2PtCl4,12.0,7.0,0.26
mp-23163,CsBi2,27.0,8.0,0.37
mp-2318,Nb2C,219.0,87.0,0.33
mp-2323,BeCu,142.0,70.0,0.29
mp-23245,ErBi,53.0,32.0,0.25
mp-2334,DyCu,79.0,35.0,0.3
mp-23752,Cs2MgH4,13.0,11.0,0.18
mp-23803,GaHO2,174.0,91.0,0.28
mp-23807,AlHO2,155.0,133.0,0.17
mp-2385,TaCr2,242.0,83.0,0.35
mp-23907,H2,-0.0,-0.0,0.5
mp-2398,ScSn2,64.0,34.0,0.27
mp-24148,LiLa2HO3,123.0,73.0,0.25
mp-25317,Li3(CuO2)2,70.0,33.0,0.29
mp-2537,NdS2,62.0,-90.0,1.91
mp-25886,CuPO4,60.0,41.0,0.22
mp-2665,PrRu2,143.0,11.0,0.46
mp-2684,TbGa2,77.0,54.0,0.21
mp-2685,HgPd,115.0,35.0,0.36
mp-27148,BeP2,89.0,73.0,0.18
mp-2738,DyNi,82.0,22.0,0.38
mp-27381,CsSnI3,10.0,5.0,0.28
mp-2741,CaF2,77.0,38.0,0.28
mp-27678,Y2Cl3,16.0,12.0,0.2
mp-27837,NaHF2,41.0,16.0,0.32
mp-27863,AlClO,29.0,21.0,0.21