material_id,pretty_formula,K_VRH,G_VRH,poisson_ratio
mp-2809,Sb2S3,16.0,9.0,0.27
mp-2823,NdP,77.0,51.0,0.23
mp-28323,Pd2Cl2O,45.0,12.0,0.38
mp-2849,US2,90.0,40.0,0.31
mp-28938,Nb3TeCl7,13.0,8.0,0.25
mp-291,TiOs,248.0,134.0,0.27
mp-2914,LaSi3Ir,125.0,67.0,0.27
mp-29208,Ca(MgBi)2,35.0,22.0,0.24
mp-29327,SmBrO,16.0,14.0,0.17
mp-29374,KGaSb4,21.0,14.0,0.23
mp-2965,Ce(MnSi)2,124.0,74.0,0.25
mp-29666,Bi2Te2Se,14.0,10.0,0.21
mp-29726,LaSi2Rh3,171.0,88.0,0.28
mp-29750,CsMgBr3,11.0,4.0,0.34
mp-29752,NiGePt2,196.0,59.0,0.36
mp-29973,SrN,39.0,26.0,0.23
mp-30042,Li2CeGe,42.0,16.0,0.33
mp-30251,YAuO2,124.0,28.0,0.4
mp-303,BaZn5,48.0,27.0,0.26
mp-30352,NaAg2,67.0,21.0,0.36
mp-30455,HoBiPt,90.0,41.0,0.3
mp-30481,CaPt5,166.0,71.0,0.31
mp-30506,CeHg2,56.0,29.0,0.28
mp-30555,TaGaCo2,202.0,86.0,0.31
mp-30563,ZrCoSn,138.0,66.0,0.29
mp-30599,Ti2Cu3,132.0,48.0,0.34
mp-30610,Er2Pt,73.0,25.0,0.35
mp-30788,SnMo3,217.0,101.0,0.3
mp-30839,Th3Pd5,92.0,21.0,0.39
mp-30867,ScRu,144.0,52.0,0.34
mp-30952,GaCl3,1.0,1.0,0.22
mp-3105,LuBPd3,138.0,9.0,0.47
mp-31160,CaZnSn,46.0,36.0,0.19
mp-31169,ScAlAg2,97.0,25.0,0.38
mp-31205,Zr3Fe,104.0,36.0,0.34
mp-31442,Li2InRh,28.0,0.0,0.5
mp-31502,ScCd7,53.0,20.0,0.33
mp-3197,TbAlPd,89.0,36.0,0.32
mp-3241,Sr(CuGe)2,71.0,41.0,0.26
mp-3292,Tb(CoSi)2,153.0,93.0,0.25
mp-339,UMn2,135.0,39.0,0.37
mp-3437,Ce(CoSi)2,135.0,83.0,0.24
mp-3455,Er(NiP)2,139.0,85.0,0.25
mp-3466,PrAlO3,177.0,121.0,0.22
mp-3472,PbSO4,40.0,18.0,0.3
mp-35208,NdOF,126.0,59.0,0.3
mp-36329,SrUO4,132.0,47.0,0.34
mp-3635,LiBO2,60.0,29.0,0.29
mp-3657,TiCo2Si,201.0,86.0,0.31
mp-3677,MgSiN2,173.0,104.0,0.25
mp-372,VPt3,241.0,110.0,0.3
mp-38280,LiTiO2,171.0,123.0,0.21
mp-4096,CeAlO3,189.0,93.0,0.29
mp-4112,Tl2SO4,24.0,8.0,0.35
mp-425,GdB2,145.0,126.0,0.16
mp-435,ThSn3,101.0,25.0,0.38
mp-4368,SbPdSe,84.0,31.0,0.34
mp-441,Rb2Te,30.0,11.0,0.33
mp-4410,Yb(Al2Mo)2,119.0,79.0,0.23
mp-4438,CaSnO3,143.0,77.0,0.27
mp-4549,SrSiN2,96.0,32.0,0.35
mp-4556,Li2SO4,42.0,19.0,0.3
mp-4574,YbTaO4,59.0,37.0,0.24
mp-4586,LiAlTe2,26.0,13.0,0.29
mp-4608,KPF6,18.0,7.0,0.32
mp-4793,U(SiPd)2,136.0,12.0,0.46
mp-4867,CaAl4O7,114.0,46.0,0.32
mp-4899,GaAgTe2,41.0,17.0,0.32
mp-4903,Tm(CuSi)2,115.0,72.0,0.24
mp-4936,Yb(SiPt)2,121.0,10.0,0.46
mp-5000,Tl(CuSe)2,35.0,15.0,0.32
mp-5025,Zr2CS,165.0,112.0,0.22
mp-504659,Hf2P,149.0,76.0,0.28
mp-504715,BaTiO3,59.0,-15.0,0.64
mp-510402,GdS,90.0,44.0,0.29
mp-5163,LaRhO3,173.0,58.0,0.35
mp-5175,NaInO2,90.0,57.0,0.24
mp-522,CuAu,135.0,28.0,0.4
mp-540584,K2PdO2,54.0,18.0,0.35
mp-5407,TiAlCo2,178.0,90.0,0.28
mp-540783,OsO4,4.0,3.0,0.24
mp-541014,Cs3Sb2I9,8.0,4.0,0.29
mp-542112,CaZrO3,209.0,62.0,0.37
mp-542429,Mg3Rh,66.0,27.0,0.32
mp-542496,Ca6Ag16N,64.0,23.0,0.34
mp-542777,CePt5,205.0,64.0,0.36
mp-542791,ZrNCl,25.0,12.0,0.29
mp-5446,Li2PrO3,65.0,25.0,0.33
mp-545344,NdTe2ClO5,50.0,18.0,0.34
mp-5456,Sr2CuO3,98.0,54.0,0.27
mp-545756,ZnSO4,72.0,8.0,0.44
mp-546790,LaCuTeO,67.0,24.0,0.34
mp-547622,Pm2O3,129.0,42.0,0.35
mp-5492,SrAl2O4,79.0,42.0,0.28
mp-550306,YCu2Bi2(SeO2)2,61.0,33.0,0.27
mp-550908,SrHfO3,156.0,98.0,0.24
mp-551873,Ca4Bi2O,43.0,29.0,0.23
mp-553961,ScNbO4,167.0,61.0,0.34
mp-554355,CaF2,40.0,29.0,0.21
mp-555599,CuS,74.0,24.0,0.36
mp-556777,Li2CO3,76.0,41.0,0.27
mp-557266,HgO2,40.0,15.0,0.33
mp-557559,S,1.0,1.0,0.27
mp-558378,Pd3S,114.0,38.0,0.35
mp-5597,Ca(FeP)2,89.0,79.0,0.16
mp-560399,NaMgF3,70.0,43.0,0.25
mp-560936,Rb2NaCrF6,36.0,27.0,0.2
mp-561419,V2FeS4,90.0,72.0,0.18
mp-561598,BaPbO3,63.0,18.0,0.37
mp-566131,KCrF3,33.0,28.0,0.17
mp-567366,CsCuCl3,15.0,-4.0,0.65
mp-567389,Li2ZnGe,43.0,4.0,0.46
mp-567454,NdGa3,65.0,35.0,0.27
mp-567617,RhN2,213.0,121.0,0.26
mp-567807,TmZrSb,78.0,35.0,0.3
mp-567981,CrGaCo2,198.0,79.0,0.32
mp-568404,Li9Al4,31.0,26.0,0.17
mp-568671,V5Si3,194.0,120.0,0.24
mp-568908,TiAs,112.0,29.0,0.38
mp-5690,GdScO3,162.0,80.0,0.29
mp-569114,BaAg2SnSe4,29.0,12.0,0.33
mp-569250,VIr,273.0,116.0,0.31
mp-569406,TmZn2,69.0,41.0,0.25
mp-570002,C,311.0,220.0,0.21
mp-570050,Yb2Sn,35.0,26.0,0.2
mp-570578,ZrIn3,72.0,48.0,0.23
mp-571011,CsI4,5.0,2.0,0.32
mp-571264,Ca5Au4,42.0,16.0,0.33
mp-571330,Nd3AlC,63.0,38.0,0.25
mp-571420,Ba(NiP2)2,100.0,40.0,0.33
mp-571499,TaIr,274.0,96.0,0.34
mp-571622,Be12Pt,133.0,76.0,0.26
mp-573316,CsPt2Se3,23.0,12.0,0.28
mp-574199,Sm(NiP)2,135.0,85.0,0.24
mp-5820,Ce(CoP)2,154.0,93.0,0.25
mp-5916,Yb(SiNi)2,94.0,56.0,0.25
mp-62,Pa,96.0,4.0,0.48
mp-620290,Sr2TlCuO5,81.0,54.0,0.22
mp-622497,V3O5,185.0,85.0,0.3
mp-623646,TiNiSn,97.0,-3.0,0.51
mp-631294,HfMoSe,86.0,-16.0,0.6
mp-631379,ZnCuMo,93.0,-11.0,0.56
mp-631425,FeTc2Cl,162.0,83.0,0.28
mp-631503,ZrAlW,100.0,28.0,0.37
mp-634859,CaO2,61.0,30.0,0.29
mp-639659,InCuPt2,172.0,61.0,0.34
mp-643279,K2H6Pt,16.0,9.0,0.27
mp-656887,Ni3O4,146.0,78.0,0.27
mp-669917,ZrRh,156.0,48.0,0.36
mp-672299,YInNi,86.0,34.0,0.32
mp-675701,Ca(HoSe2)2,42.0,28.0,0.23
mp-685055,CrTe2,30.0,14.0,0.3
mp-6917,TmAgSn,67.0,40.0,0.25
mp-692,Tb2C,61.0,27.0,0.31
mp-700,GeSe,21.0,14.0,0.22
mp-7090,NaMgSb,27.0,15.0,0.26
mp-7191,Sr3GaN3,61.0,38.0,0.24
mp-722913,Hf3Zn3N,134.0,83.0,0.24
mp-7239,PrMgGa,50.0,38.0,0.2
mp-725,RhO2,234.0,94.0,0.32
mp-7405,SmAlO3,181.0,110.0,0.25
mp-743,RbN3,17.0,9.0,0.27
mp-7480,RbLuO2,93.0,53.0,0.26
mp-752826,Al2O3,166.0,74.0,0.3
mp-752947,NaTiS2,54.0,36.0,0.22
mp-753,ZnSb,48.0,28.0,0.25
mp-753257,LiCuF4,28.0,19.0,0.23
mp-753712,YIO,45.0,25.0,0.26
mp-754213,Li2ZrCuO4,111.0,64.0,0.26
mp-754375,NaTi2O3,142.0,76.0,0.27
mp-754711,Nb2Pb2O7,145.0,77.0,0.27
mp-754752,NbNO,184.0,61.0,0.35
mp-754839,SnBiO4,118.0,32.0,0.37
mp-754969,TmBrO,19.0,15.0,0.2
mp-755313,Sc2O3,174.0,81.0,0.3
mp-756063,RbNbO3,64.0,19.0,0.37
mp-756235,Ba3SrI8,19.0,6.0,0.35
mp-758371,YbAlO3,171.0,85.0,0.29
mp-759943,Al2O3,197.0,111.0,0.26
mp-7603,Li2TiF6,49.0,30.0,0.25
mp-760415,Li3SbS4,25.0,13.0,0.28
mp-761315,MnFeO4,152.0,57.0,0.33
mp-761512,Co3TeO8,79.0,-28.0,0.7
mp-765499,Li3VF6,54.0,33.0,0.25
mp-768680,CrP2S7,8.0,5.0,0.26
mp-778,Fe2P,216.0,89.0,0.32
mp-782035,Al2O3,16.0,11.0,0.22
mp-7936,LiNbS2,83.0,57.0,0.22
mp-8046,Ta4N5,292.0,172.0,0.25
mp-8048,NdNi4B,148.0,69.0,0.3
mp-8074,TaSnO3,225.0,36.0,0.42
mp-8134,UO3,167.0,40.0,0.39
mp-8137,NpSO,99.0,39.0,0.32
mp-8211,GaGeTe,14.0,11.0,0.2
mp-8224,CaSnF6,7.0,26.0,-0.32
mp-8389,Na6ZnS4,32.0,15.0,0.3
mp-846,Hf2Al3,114.0,67.0,0.25
mp-8608,K(Cu2As)2,52.0,19.0,0.34
mp-8612,Sb2TeSe2,15.0,10.0,0.22
mp-861876,LiAc2Si,39.0,23.0,0.25
mp-861883,Ac2CuIr,73.0,13.0,0.41
mp-861995,PaNi2Sn,141.0,39.0,0.37
mp-862363,Sc2PdPt,126.0,41.0,0.35
mp-862366,Sc2TlAg,72.0,31.0,0.31
mp-862728,Pm2ZnRu,80.0,24.0,0.36
mp-862745,Sr2LiPt,13.0,12.0,0.16
mp-862874,PmAgHg2,69.0,17.0,0.39
mp-862881,CaPmCd2,42.0,18.0,0.31
mp-862891,PmCdAu2,79.0,-1051.0,-1.44
mp-862895,Er2ZnRu,91.0,34.0,0.33
mp-862897,PmCdPt2,108.0,15.0,0.43
mp-862905,PmGaAu2,83.0,-11.0,0.57
mp-863711,ErGaRh2,153.0,50.0,0.35
mp-8643,Os,408.0,231.0,0.26
mp-864608,NpGaRh2,96.0,28.0,0.37
mp-864748,Gd2MgIn,33.0,20.0,0.25
mp-864783,Yb2SbAu,48.0,30.0,0.24
mp-864941,MgSc2,49.0,23.0,0.3
mp-864959,Dy2CuOs,104.0,43.0,0.32
mp-864971,MnSnRu2,265.0,113.0,0.31
mp-864990,Mn2AlW,236.0,127.0,0.27
mp-865080,NaCeAu2,5.0,18.0,-0.3
mp-865130,Hf2MoRh,174.0,78.0,0.31
mp-865150,MgCdAu2,87.0,23.0,0.38
mp-865237,Tm2ZnIr,102.0,40.0,0.32
mp-865255,LuNbRu2,184.0,78.0,0.31
mp-865329,Lu2MgTc,82.0,28.0,0.34
mp-865603,Y2IrRh,119.0,47.0,0.33
mp-865648,Yb2CdPb,33.0,27.0,0.18
mp-865649,Ti2TcRh,204.0,94.0,0.3
mp-865661,YbMgCd2,41.0,-3.0,0.54
mp-865663,YbLuRh2,102.0,42.0,0.32
mp-865747,Y2MgGe2,72.0,55.0,0.2
mp-865786,CrPd3,155.0,65.0,0.32
mp-865814,YbMgHg2,43.0,-17.0,0.73
mp-866007,DyMgTl2,49.0,7.0,0.44
mp-866062,HfSiRu2,224.0,106.0,0.3
mp-866142,TiGaIr2,223.0,93.0,0.32
mp-866143,TiBeRh2,204.0,94.0,0.3
mp-866376,TiMn2Ge,195.0,88.0,0.3
mp-8666,CsAgO,22.0,8.0,0.33
mp-867214,Er2IrRu,131.0,59.0,0.3
mp-867218,SmAgHg2,67.0,17.0,0.38
mp-867226,Li3In,25.0,12.0,0.29
mp-867252,LiZn2Ni,86.0,35.0,0.32
mp-867257,CaPrCd2,43.0,21.0,0.29
mp-867346,ThCdHg2,73.0,19.0,0.38
mp-867351,Tc,302.0,141.0,0.3
mp-867834,LiHfPt2,143.0,18.0,0.44
mp-8939,Si2W,221.0,147.0,0.23
mp-900,RhSe,136.0,29.0,0.4
mp-9060,RbPdF3,70.0,24.0,0.35
mp-9194,SmCuSeO,77.0,37.0,0.29
mp-947,Au2S,64.0,12.0,0.41
mp-9472,LiAg2Ge,65.0,20.0,0.36
mp-9503,BaDyCuTe3,37.0,16.0,0.31
mp-960,B2Mo,299.0,153.0,0.28
mp-961650,AlVNi,107.0,-239.0,4.94
mp-961697,ScGeAu,121.0,35.0,0.37
mp-961701,ZrAgB,98.0,-31.0,0.67
mp-961727,TaGeRh,141.0,-16.0,0.56
mp-9672,K2NiP2,21.0,14.0,0.23
mp-971799,DyYHg2,65.0,24.0,0.34
mp-971928,Zn3Ge,58.0,4.0,0.47
mp-971948,Zn3Co,116.0,38.0,0.35
mp-9721,Ca3GeO,47.0,46.0,0.13
mp-972116,VIrO3,116.0,-56.0,0.79
mp-972244,Tm2ZnGa,70.0,40.0,0.26
mp-972511,Sm2AgSn,59.0,22.0,0.34
mp-972961,Sc2NiRh,100.0,37.0,0.34
mp-973142,ScZn2Pd,99.0,26.0,0.38
mp-973896,Ni3I,125.0,32.0,0.38
mp-973940,LiCd3,35.0,10.0,0.37
mp-974395,Pt3Rh,211.0,76.0,0.34
mp-974464,ReH3,156.0,-394.0,8.34
mp-975512,InSb3,41.0,38.0,0.14
mp-975905,Mo3I,168.0,28.0,0.42
mp-976125,PrGaAu2,78.0,-13.0,0.59
mp-976139,Li3Mg,19.0,8.0,0.31
mp-976259,LiTmRh2,101.0,37.0,0.34
mp-976264,Li3Nd,20.0,-3.0,0.59
mp-976271,KTi2F7,77.0,38.0,0.29
mp-976280,LiBr,18.0,8.0,0.3
mp-976727,PrBiO3,104.0,26.0,0.38
mp-977310,OsAu3,145.0,21.0,0.43
mp-977382,Ta2VRu,232.0,84.0,0.34
mp-977444,PaAgAu2,123.0,-81.0,0.92
mp-977542,LiTbTl2,47.0,17.0,0.34
mp-977565,NdBiAu2,76.0,10.0,0.44
mp-9776,YbAgGe,50.0,30.0,0.25
mp-9778,K2AgP,23.0,11.0,0.29
mp-978085,Pr2TlAg,51.0,14.0,0.38
mp-978264,MgW3,151.0,23.0,0.43
mp-978518,Sm2Ag2O5,127.0,9.0,0.47
mp-978534,SiGe,74.0,56.0,0.2
mp-978543,SmErTl2,55.0,19.0,0.35
mp-978855,Sn3B,139.0,-9.0,0.53
mp-979073,TmMg2Sc,42.0,27.0,0.23
mp-979294,SrAgO3,112.0,47.0,0.32
mp-979424,YErIn2,62.0,20.0,0.35
mp-980054,YbPbAu2,69.0,13.0,0.41
mp-980058,RbTbO3,57.0,6.0,0.45
mp-981311,SrTlHg2,103.0,12.0,0.44
mp-981367,SrTlO3,247.0,56.0,0.39
mp-982665,K3In,10.0,-3.0,0.66
mp-983123,HfMgAu2,110.0,33.0,0.36
mp-983236,Pm2ZnOs,93.0,29.0,0.36
mp-983586,Ac2SiHg,49.0,18.0,0.34
mp-983908,Er2ZnAu,79.0,34.0,0.31
mp-984351,CuAg3,91.0,15.0,0.42
mp-984718,BAs,131.0,126.0,0.14
mp-985278,AcF3,120.0,33.0,0.37
mp-985303,Ac3Th,31.0,20.0,0.24
mp-985578,AlFe,85.0,75.0,0.16
mp-989402,Sr6In2NF,42.0,5.0,0.44
mp-989512,LiTl2InCl6,22.0,11.0,0.3
mp-989586,SrTcN3,123.0,30.0,0.39
mp-9907,SrAs3,33.0,22.0,0.23
mp-9934,BaMgSi,35.0,24.0,0.22
mp-9946,ZnS,70.0,33.0,0.29
mp-997012,CuPdO2,156.0,28.0,0.42
mp-997616,BaC,38.0,12.0,0.36
mp-998323,CsInBr3,21.0,8.0,0.33
mp-999059,Ti2GaFe,575.0,-58.0,0.55
mp-999118,TcB,269.0,44.0,0.42
mp-999259,RuC,256.0,168.0,0.23
mp-999303,PdN,212.0,-182.0,1.1
mp-999437,Nb3Ni,228.0,-1.0,0.5
mp-999474,NaHoSe2,39.0,26.0,0.23
mp-999496,Na3N,20.0,13.0,0.22
mp-999539,MnO,87.0,30.0,0.34
mvc-11697,YCuO3,149.0,65.0,0.31
mvc-15387,WN,328.0,147.0,0.31
mvc-15474,YSnO3,197.0,46.0,0.39
mp-10013,SnS,38.0,-4.0,0.56
mp-1002223,DyP,86.0,-936.0,-1.57
mp-10051,TeAs,71.0,14.0,0.4
mp-10055,Co2B4Mo,303.0,179.0,0.25
mp-1006886,CeS,14.0,29.0,-0.1
mp-1007637,KNaH2,18.0,13.0,0.2
mp-1007924,CrCu2Si,127.0,21.0,0.42
mp-1008487,BW,341.0,186.0,0.27
mp-1008488,BiPd,86.0,23.0,0.38
mp-1008555,AlCu3,129.0,0.0,0.5
mp-1008625,W2C,303.0,160.0,0.28
mp-1009206,MnSn,83.0,-49.0,0.86
mp-1009695,CaB2,121.0,106.0,0.16
mp-1009720,RhN,255.0,62.0,0.39
mp-1009750,ScN,141.0,45.0,0.35
mp-1009822,SnC,89.0,61.0,0.22
mp-1011695,Cs2Se,12.0,5.0,0.32
mp-10118,Mn3B4,234.0,167.0,0.21
mp-10134,TmBPd3,142.0,10.0,0.47
mp-1013733,Ca3BiSb,26.0,16.0,0.25
mp-1016826,MgIrO3,130.0,4.0,0.48
mp-1016842,TiHgO3,144.0,28.0,0.41
mp-1016874,SiHgO3,219.0,68.0,0.36
mp-1016877,HgRhO3,182.0,43.0,0.39
mp-1016999,SrGeO3,226.0,125.0,0.27
mp-1017629,MgNiH3,139.0,40.0,0.37
mp-1018072,KTiS2,62.0,35.0,0.26
mp-1018082,CrCo2Sb,172.0,80.0,0.3
mp-1018088,C,255.0,-92.0,0.7
mp-10183,MgSbPd,81.0,29.0,0.34
mp-10204,MnSe,58.0,26.0,0.3
mp-10240,ScNiP,152.0,92.0,0.25
mp-1025010,Be5Fe,132.0,113.0,0.17
mp-1025105,LuAlGe,87.0,54.0,0.24
mp-1025181,Tm2Cr2C3,167.0,77.0,0.3
mp-1025222,ZnPd5Se,136.0,44.0,0.35
mp-1025241,ScGa5Fe,77.0,52.0,0.22
mp-1025358,Er(Al2Mo)2,132.0,85.0,0.23
mp-1025377,Cd(AgI2)2,20.0,6.0,0.36
mp-1025526,LuAu3,111.0,31.0,0.37
mp-1029312,RbVN2,55.0,36.0,0.23
mp-1029385,Li2SnN2,114.0,86.0,0.2
mp-1029446,CaGeN2,127.0,179.0,0.02
mp-1029868,Sr5(SiN3)2,80.0,38.0,0.3
mp-10367,HfSbRh,98.0,3.0,0.49
mp-1039055,Mg3Cd,40.0,15.0,0.33
mp-1045,Nd2O3,124.0,51.0,0.32
mp-10485,BaLiSb,29.0,23.0,0.18
mp-10564,SrN2,59.0,35.0,0.25
mp-10637,ThSb,89.0,31.0,0.34
mp-10687,LiCdP,37.0,18.0,0.29
mp-10736,Ba3N,13.0,6.0,0.31
mp-10738,SmPPt,117.0,49.0,0.32
mp-10755,TiFeSb,114.0,53.0,0.3
mp-10824,ZnCu2GeSe4,47.0,27.0,0.26
mp-10850,SbTePd,81.0,31.0,0.33
mp-10891,MnAlPd2,141.0,34.0,0.39
mp-10924,Mg(Co3P2)2,203.0,99.0,0.29
mp-1097,TaB,266.0,213.0,0.18
mp-1099,NiGe,136.0,62.0,0.3
mp-1101,TmAs,80.0,55.0,0.22
mp-11194,NdMgNi4,117.0,50.0,0.31
mp-11367,DyHg2,62.0,29.0,0.29
mp-1138,LiF,70.0,51.0,0.21
mp-11392,TmGa2Pd,103.0,50.0,0.29
mp-11498,MgTl,35.0,-13.0,0.71
mp-11511,LaAlGe,513.0,41.0,0.46
mp-11562,TbRh5,188.0,73.0,0.33
mp-11667,Nd2(Zn2Ge)3,72.0,52.0,0.21
mp-11718,RbF,24.0,14.0,0.26
mp-11737,Li4SiO4,80.0,53.0,0.23
mp-11771,CoCu2SnSe4,65.0,26.0,0.33
mp-11807,LiPt,115.0,51.0,0.31
mp-11919,Sr(BeN)2,83.0,67.0,0.18
mp-11947,LiAlAg2,69.0,27.0,0.33
mp-11971,HoSnRh,107.0,44.0,0.32
mp-12079,K(CoS)2,43.0,31.0,0.21
mp-12103,N2,1.0,0.0,0.34
mp-12505,LuAgSn,73.0,39.0,0.28
mp-12565,MnAu4,129.0,31.0,0.39
mp-12666,Be12Pd,124.0,78.0,0.24
mp-12962,Zr6FeSb2,113.0,58.0,0.28
mp-13041,Yb2C(NO)2,66.0,-17.0,0.64
mp-13119,CdO,93.0,19.0,0.4
mp-1326,Nb3Sn,164.0,22.0,0.44
mp-1330,AlN,255.0,217.0,0.17
mp-13312,ScTlS2,50.0,27.0,0.27
mp-1349,SrPt2,118.0,50.0,0.31
mp-1388,DyRh2,158.0,60.0,0.33
mp-14285,CoP2,163.0,122.0,0.2
mp-1431,MnSi,210.0,141.0,0.22
mp-14568,BaMgF4,57.0,29.0,0.28
mp-1483,SiRh,221.0,83.0,0.33
mp-1518,CeRh3,154.0,72.0,0.3
mp-15651,NiSe,104.0,45.0,0.31
mp-15809,Cr2B,289.0,185.0,0.24
mp-1603,TmGa3,66.0,33.0,0.29
mp-16052,Ba(Cu2As)2,74.0,13.0,0.42
mp-16261,Ca(GeRh)2,97.0,58.0,0.25
mp-16342,HoGe,82.0,54.0,0.23
mp-1640,Ho2C,64.0,32.0,0.29
mp-16732,YAs,100.0,-117.0,1.46
mp-1689,HfRe2,262.0,75.0,0.37
mp-1751,ThSb,78.0,29.0,0.34
mp-1814,BaAg5,50.0,13.0,0.38
mp-18288,Ti(SnO2)2,64.0,16.0,0.39
mp-18850,BaYMn2O5,139.0,66.0,0.29
mp-18875,MgWO4,136.0,70.0,0.28
mp-18972,Sr2VO4,131.0,72.0,0.27
mp-1898,CeSi2,92.0,47.0,0.28
mp-1907,TiTe2,18.0,12.0,0.21
mp-19079,CoO,236.0,38.0,0.42
mp-19086,BaCoO2,79.0,31.0,0.33
mp-19118,BaNd2CoO5,114.0,54.0,0.3
mp-1914,YGa2,73.0,55.0,0.2
mp-1915,Fe2B,227.0,145.0,0.24
mp-1926,HoFe2,86.0,28.0,0.35
mp-19318,Ag2MoO4,68.0,5.0,0.47
mp-19358,SmMn2O5,152.0,75.0,0.29
mp-19417,TiFeO3,166.0,47.0,0.37
mp-19420,Sr2MgWO6,127.0,72.0,0.26
mp-19807,Co3(SnS)2,97.0,57.0,0.26
mp-19816,Sm2In,45.0,19.0,0.31
mp-19988,SmGa5Co,72.0,53.0,0.2
mp-20185,LuNiSb,80.0,62.0,0.19
mp-20249,MnCoP,199.0,107.0,0.27
mp-2025,HfBe5,131.0,120.0,0.15
mp-20272,GdPt3,161.0,68.0,0.31
mp-20310,LiInSe2,30.0,14.0,0.3
mp-20335,MnNbP,228.0,100.0,0.31
mp-20379,DyTh,48.0,-46.0,1.2
mp-20384,CeAgAs2,83.0,44.0,0.28
mp-204,CeFe2,84.0,16.0,0.41
mp-20424,MgCo3C,198.0,113.0,0.26
mp-20457,InP,2.0,49.0,-0.81
mp-20503,GdTl3,61.0,16.0,0.38
mp-20536,CoSn,127.0,72.0,0.26
mp-2077,DyMg,45.0,20.0,0.31
mp-20841,Ba2CaIrO6,109.0,57.0,0.28
mp-20860,Mn3SnC,209.0,115.0,0.27
mp-20990,Pr3InN,69.0,49.0,0.21
mp-21141,Fe2CuGe2,129.0,62.0,0.29
mp-215,YSb,46.0,29.0,0.24
mp-21862,VRu3C,476.0,158.0,0.35
mp-22027,MnSnAu,80.0,20.0,0.38
mp-22309,CoSe2,99.0,66.0,0.23
mp-22440,LuSiIr,155.0,85.0,0.27
mp-22511,Ce2MgGe2,64.0,47.0,0.21
mp-22619,NiP2,145.0,98.0,0.22
mp-22865,CsCl,15.0,8.0,0.28
mp-22868,BiRh,104.0,30.0,0.37
mp-2287,SiRh,184.0,90.0,0.29
mp-23158,He,1.0,0.0,0.21
mp-232,DyRh,115.0,41.0,0.34
mp-2322,YAl2,80.0,60.0,0.2
mp-23222,Li3Bi,28.0,21.0,0.2
mp-23253,RbBi2,29.0,2.0,0.47
mp-23300,NdBi,47.0,28.0,0.25
mp-23505,K2TeBr6,-0.0,7.0,-1.13
mp-24093,CuH,108.0,33.0,0.36
mp-24289,HPd,174.0,38.0,0.4
mp-2434,SrTl,106.0,31.0,0.37
mp-24409,PH4I,13.0,7.0,0.27
mp-24417,MoH,219.0,169.0,0.19
mp-24650,YH2,69.0,58.0,0.17
mp-2472,SrO,87.0,56.0,0.24
mp-2551,DyCo5,136.0,34.0,0.39
mp-25542,LiMnO2,101.0,40.0,0.33
mp-259,AlMo3,225.0,121.0,0.27
mp-2653,BN,373.0,383.0,0.12
mp-2657,TiO2,209.0,110.0,0.28
mp-2686,Ca2N,35.0,15.0,0.31
mp-2689,ThFe5,80.0,44.0,0.27
mp-2720,NdPt2,149.0,64.0,0.31
mp-27226,MgCu2O3,93.0,52.0,0.26
mp-27255,Ga2TeS2,25.0,18.0,0.21
mp-2732,PRh2,235.0,84.0,0.34
mp-2748,CeAs,61.0,43.0,0.21
mp-27562,Na2Pd3O4,93.0,35.0,0.33
mp-28056,P2Rh3,211.0,60.0,0.37
mp-28069,Ca3AsCl3,39.0,24.0,0.25
mp-2831,FePd,162.0,76.0,0.3
mp-2858,ZrO2,183.0,85.0,0.3
mp-28786,Zn(BIr)2,222.0,110.0,0.29
mp-2879,SrSnO3,138.0,74.0,0.27
mp-28872,RbBrO3,15.0,9.0,0.24
mp-2895,Mg2SiO4,119.0,74.0,0.24
mp-2935,Li2GeAu,42.0,35.0,0.17
mp-2947,SmB2Rh3,198.0,98.0,0.29
mp-29638,BiTePt,86.0,32.0,0.33
mp-29652,TaSe3,19.0,14.0,0.21
mp-29678,AgBiS2,61.0,15.0,0.38
mp-30019,ZrCu2Te3,39.0,21.0,0.27
mp-30028,YSi2Rh3,174.0,99.0,0.26
mp-3011,Th(GeRh)2,160.0,48.0,0.36
mp-30181,PrAl3Ni2,139.0,59.0,0.31
mp-30351,MgAg3,74.0,2.0,0.48
mp-30533,KPt2S3,32.0,15.0,0.3
mp-30536,V5Sb4,89.0,53.0,0.25
mp-30670,Th3Ga2,64.0,7.0,0.45
mp-30717,KHg2,15.0,-1.0,0.54
mp-30769,Li13Sn5,30.0,24.0,0.18
mp-30777,MgPt3,182.0,76.0,0.32
mp-30807,ZrNi4Sn,165.0,62.0,0.33
mp-30808,TbNi5,133.0,70.0,0.28
mp-30849,TaPt2,243.0,78.0,0.35
mp-30930,AlI3,1.0,1.0,0.12
mp-31043,H5NF2,29.0,10.0,0.35
mp-31186,AlFe2Ni,148.0,-720.0,-3.43
mp-31220,AlSiTe3,15.0,10.0,0.24
mp-315,PbF2,70.0,22.0,0.36
mp-32679,Nb10C7,227.0,133.0,0.26
mp-32829,CuCl4,2.0,2.0,0.12
mp-32880,CuBr,48.0,14.0,0.37
mp-33322,LiHoSe2,47.0,31.0,0.23
mp-35591,LiErS2,54.0,37.0,0.22
mp-3567,NaVSe2,47.0,11.0,0.39
mp-36,Sc,51.0,22.0,0.32
mp-3679,NiSbS,96.0,51.0,0.27
mp-3701,Sc(Al2Fe)4,126.0,85.0,0.22
mp-37214,MnPbO3,84.0,66.0,0.19
mp-3740,TiNi2Sn,156.0,40.0,0.38
mp-37657,Ca3SiO5,95.0,45.0,0.3
mp-378,ErSi,95.0,67.0,0.21
mp-3886,Zr2AlC,124.0,90.0,0.21
mp-389,SiPd,149.0,58.0,0.33
mp-390,TiO2,179.0,55.0,0.36
mp-4022,Zr2CoSi2,151.0,95.0,0.24
mp-4051,AlPO4,9.0,31.0,-0.28
mp-408,Mg2Ge,50.0,42.0,0.17
mp-4156,Li2ZrO3,101.0,59.0,0.26
mp-4236,BaZnO2,83.0,33.0,0.32
mp-4316,Sr(NiAs)2,54.0,30.0,0.26
mp-4494,NaYbS2,33.0,13.0,0.32
mp-450,NbB2,287.0,195.0,0.22
mp-4520,Y(CuGe)2,100.0,55.0,0.27
mp-4697,Zn(CrSe2)2,69.0,31.0,0.3
mp-4720,Si2Ni6B,210.0,77.0,0.34
mp-4856,HoGa5Co,89.0,50.0,0.26
mp-4878,ZrGeSe,102.0,68.0,0.23
mp-4922,MnAlNi2,158.0,26.0,0.42
mp-5022,Er(SiRu)2,149.0,77.0,0.28
mp-504741,Hf(FeSi)2,193.0,94.0,0.29
mp-505019,USb2Ru,90.0,52.0,0.26
mp-505198,CsCu4Se3,42.0,17.0,0.33
mp-505368,As2Pb3O8,41.0,21.0,0.28
mp-5219,Ho(SiOs)2,171.0,84.0,0.29
mp-540789,PbI2,4.0,2.0,0.27
mp-541431,Ca2SiH2O5,71.0,36.0,0.29
mp-542595,Ge2W,172.0,137.0,0.19
mp-5431,BaTeO3,39.0,21.0,0.28
mp-546279,ScBrO,22.0,14.0,0.24
mp-5538,YSnPd2,108.0,25.0,0.39
mp-556927,RbFeF4,36.0,13.0,0.34
mp-557533,Cs2TlVF6,79.0,14.0,0.42
mp-557753,K3PO4,37.0,18.0,0.29
mp-557862,BaAg2(HgO2)2,46.0,17.0,0.34
mp-558050,Rb2NaMnF6,17.0,21.0,0.05
mp-558636,CaAl2O4,144.0,87.0,0.25
mp-558781,ScTaO4,177.0,72.0,0.32
mp-560037,Rb2NaBiF6,33.0,16.0,0.29
mp-560338,CrF3,37.0,39.0,0.11
mp-567181,ZrRh,162.0,53.0,0.35
mp-567240,Ba(MnSb)2,34.0,18.0,0.27
mp-567279,ZnCl2,9.0,5.0,0.27
mp-567308,Sc,46.0,30.0,0.23
mp-5676,MnSbPt,110.0,29.0,0.38
mp-567698,CsTiI3,10.0,3.0,0.36
mp-567723,Nd(NiAs)2,90.0,52.0,0.26
mp-567832,TiTe,87.0,53.0,0.25
mp-568018,RbSb2,15.0,8.0,0.28
mp-568077,TaFe2,228.0,93.0,0.32
mp-568139,NdInAu2,76.0,14.0,0.41
mp-568232,Ti6Sn5,102.0,56.0,0.27
mp-568258,Fe2Ge,107.0,326.0,-0.26
mp-568337,ThRh2,170.0,35.0,0.4
mp-568382,MnBi,56.0,30.0,0.27
mp-568469,Ca4TiN4,90.0,43.0,0.29
mp-569247,Zr(FeSi)2,183.0,88.0,0.29
mp-569458,AlV4C3,219.0,166.0,0.2
mp-569523,Y2InNi2,77.0,38.0,0.29
mp-569931,Pr(NiP)2,111.0,79.0,0.21
mp-570008,Sr3BiN,43.0,36.0,0.17
mp-570293,Nb5Ga3,165.0,77.0,0.3
mp-570749,YbHg2,39.0,14.0,0.34
mp-570923,YRe2,203.0,57.0,0.37
mp-571033,NiSe,22.0,8.0,0.35
mp-571166,CaBr2,25.0,10.0,0.32
mp-571443,SrMgIn3,36.0,22.0,0.24
mp-571458,RbGeI3,18.0,10.0,0.26
mp-571651,TiSe,105.0,61.0,0.26
mp-573119,BiRhO3,174.0,57.0,0.35
mp-576,B13C2,222.0,159.0,0.21
mp-601842,Fe9Co7,190.0,97.0,0.28
mp-604884,BN,102.0,75.0,0.21
mp-627439,Mn3GaN,230.0,129.0,0.26
mp-629015,BN,101.0,73.0,0.21
mp-631322,KSnOs,52.0,4.0,0.46
mp-631336,LaMgNb2,57.0,-1.0,0.51
mp-631482,BiMoRh,128.0,28.0,0.4
mp-631497,BeInBi,33.0,-9.0,0.65