material_id,pretty_formula,K_VRH,G_VRH,poisson_ratio
mp-28952,PdSO4,26.0,12.0,0.31
mp-29015,CaThBr6,10.0,4.0,0.32
mp-29152,Zr2CoP,154.0,78.0,0.28
mp-29153,Zr2NiP,152.0,83.0,0.27
mp-29615,Ca(MnBi)2,33.0,14.0,0.32
mp-29617,V3Sb2,99.0,20.0,0.41
mp-29771,MgC2,78.0,29.0,0.33
mp-30080,Li2GePd,64.0,-5.0,0.54
mp-30083,TlBi,34.0,21.0,0.25
mp-30182,ThAl3Ni2,128.0,74.0,0.26
mp-30183,ZrAl5Ni2,120.0,84.0,0.22
mp-3021,Tl(FeSe)2,44.0,22.0,0.29
mp-30342,HoInAg2,77.0,19.0,0.39
mp-30460,YNiBi,77.0,48.0,0.24
mp-30477,LiCaSn,33.0,26.0,0.19
mp-30562,Sc2Co,87.0,12.0,0.43
mp-30619,Zr3Co,104.0,34.0,0.35
mp-31142,YbBiAu,38.0,-33.0,1.1
mp-31168,Li2AlAg,49.0,21.0,0.31
mp-31294,Sr2In3Rh2,57.0,25.0,0.31
mp-31328,MnInPd2,127.0,28.0,0.4
mp-3203,NdTaO4,146.0,66.0,0.3
mp-3217,USeO,104.0,58.0,0.26
mp-3236,Pr2SO2,100.0,53.0,0.27
mp-34289,TiNbS4,19.0,14.0,0.21
mp-34293,CsTaN2,46.0,32.0,0.22
mp-3582,Mg(BC)2,158.0,104.0,0.23
mp-36775,SrAl2O4,89.0,43.0,0.29
mp-36864,Li2TiO3,123.0,88.0,0.21
mp-3827,KFeS2,19.0,9.0,0.3
mp-3838,Li5ReN4,71.0,46.0,0.24
mp-3839,GaCuTe2,48.0,24.0,0.28
mp-3982,KCuO2,36.0,19.0,0.28
mp-399,Te2Pt,49.0,28.0,0.26
mp-4007,Nd(SiNi)2,121.0,70.0,0.26
mp-40793,Si3N4,226.0,98.0,0.31
mp-4083,MgCuAs,74.0,32.0,0.31
mp-4150,Ca(MnSb)2,35.0,16.0,0.3
mp-4291,Ho(NiGe)2,123.0,50.0,0.32
mp-4366,Na2PtC2,52.0,24.0,0.3
mp-4505,La3AlN,62.0,43.0,0.22
mp-4536,ScNi2Sn,128.0,51.0,0.33
mp-4593,Mn3AlC,215.0,129.0,0.25
mp-4604,Li7VN4,83.0,72.0,0.16
mp-4674,BNF8,16.0,8.0,0.29
mp-4732,UGa5Co,107.0,75.0,0.22
mp-4763,ZnSiP2,85.0,54.0,0.24
mp-477,SmGa2,69.0,54.0,0.19
mp-4881,Er(SiNi)2,129.0,72.0,0.27
mp-49,Os,401.0,259.0,0.23
mp-493,Co2B,247.0,104.0,0.31
mp-4979,AlCuS2,66.0,38.0,0.26
mp-5014,CuAgS,42.0,16.0,0.33
mp-503,ThS,116.0,35.0,0.36
mp-505296,Ce2MgSi2,54.0,48.0,0.15
mp-505531,FeS,30.0,19.0,0.24
mp-5104,CaZnF4,68.0,22.0,0.35
mp-510412,Si3Ru4,232.0,103.0,0.31
mp-5152,La2SiO5,98.0,43.0,0.31
mp-5245,Zn(CN)2,51.0,5.0,0.46
mp-5251,Ca4CN4,67.0,32.0,0.29
mp-5383,NdNiC2,172.0,86.0,0.29
mp-542854,Mg9Si5,59.0,38.0,0.23
mp-5436,FeCo2Si,202.0,90.0,0.31
mp-547271,ReO3,238.0,124.0,0.28
mp-549475,TbBi2BrO4,65.0,34.0,0.28
mp-555,Fe8N,182.0,88.0,0.29
mp-555293,NbS2,7.0,4.0,0.27
mp-556562,LiAsH6(OF2)3,16.0,8.0,0.28
mp-557993,BiO2,41.0,24.0,0.26
mp-558411,Y2Zr2O7,132.0,86.0,0.23
mp-558852,FeF3,104.0,49.0,0.3
mp-559676,SnS,28.0,16.0,0.26
mp-559931,VF3,24.0,31.0,0.06
mp-560530,Nb2Cd2O7,117.0,45.0,0.33
mp-561664,TeF4,11.0,6.0,0.26
mp-567197,YSnAu,78.0,42.0,0.27
mp-567314,ErNi,90.0,26.0,0.37
mp-567395,Li15Au4,28.0,13.0,0.3
mp-567441,HfIN,23.0,12.0,0.28
mp-568083,LaNi2B2C,81.0,81.0,0.12
mp-568171,Nd2Al,35.0,7.0,0.41
mp-568390,Bi2Te3,39.0,-173.0,-4.13
mp-568792,Si5Rh4,181.0,90.0,0.29
mp-568891,MnSbRh,111.0,-8.0,0.54
mp-568895,BaSbAu,45.0,26.0,0.26
mp-568974,Ca(CuSn)2,61.0,27.0,0.31
mp-569017,PdI2,6.0,3.0,0.26
mp-569073,LiSn,35.0,19.0,0.27
mp-569197,GdNiSb,75.0,50.0,0.23
mp-569298,Ca(CoAs)2,83.0,47.0,0.26
mp-569803,B2W,321.0,224.0,0.22
mp-569807,RbTiBr3,16.0,7.0,0.32
mp-569837,Ti3Sb,110.0,56.0,0.28
mp-570213,LiMgBi,31.0,21.0,0.22
mp-570276,ZrZn,108.0,47.0,0.31
mp-570960,HfOs2,274.0,91.0,0.35
mp-571386,CuCl,47.0,2.0,0.48
mp-571491,HoB6,175.0,58.0,0.35
mp-5745,Nb2CS2,35.0,26.0,0.2
mp-5782,AlAgS2,63.0,21.0,0.35
mp-5908,CeAsS,67.0,55.0,0.18
mp-5915,TlNO3,21.0,7.0,0.35
mp-5928,Al2CdS4,39.0,22.0,0.26
mp-604910,MnSe,24.0,13.0,0.27
mp-605028,Te2Pd3Pb2,34.0,16.0,0.3
mp-611426,C,436.0,523.0,0.07
mp-614777,NiF3,51.0,38.0,0.2
mp-625055,AlHO2,74.0,37.0,0.28
mp-626708,Co(HO)2,41.0,20.0,0.29
mp-631308,SnIrSe2,74.0,-26.0,0.7
mp-631399,OsPtCl2,114.0,-106.0,1.17
mp-631418,CuRe2Cl,164.0,-599.0,-7.79
mp-631464,KBePt,42.0,-86.0,3.66
mp-636328,TiPd3,178.0,88.0,0.29
mp-641539,Si3N4,255.0,144.0,0.26
mp-644229,Sr(AlH)2,41.0,36.0,0.16
mp-644280,GaCuPt2,187.0,72.0,0.33
mp-6504,BaMg(CO3)2,76.0,33.0,0.31
mp-675634,KBi2F7,50.0,18.0,0.33
mp-689940,CoPO4,17.0,14.0,0.17
mp-690760,TiH,128.0,32.0,0.38
mp-6960,Rb2SiAs2,26.0,11.0,0.32
mp-697030,Mg2H6Ru,75.0,53.0,0.21
mp-7007,NbSe2,10.0,6.0,0.26
mp-705519,Ni15O16,169.0,81.0,0.29
mp-7079,CaZrSi2O7,136.0,65.0,0.29
mp-714969,MoO2,89.0,51.0,0.26
mp-720,TlF,4.0,3.0,0.18
mp-736,Li3P,40.0,34.0,0.17
mp-7387,KAgF4,27.0,11.0,0.33
mp-7437,KZnP,36.0,26.0,0.21
mp-7470,RbCuO,26.0,11.0,0.32
mp-753098,LiCuF2,55.0,25.0,0.3
mp-753459,Nb3O7F,214.0,101.0,0.3
mp-753508,LiCuS,37.0,15.0,0.32
mp-754008,BaCuO2,79.0,26.0,0.35
mp-754040,CeSmO2,136.0,80.0,0.25
mp-7543,LiVS2,66.0,3.0,0.48
mp-754940,Ba3SiO,37.0,26.0,0.22
mp-755071,SnO2,140.0,50.0,0.34
mp-756361,ZrSeO,122.0,47.0,0.33
mp-7572,MgSO4,70.0,48.0,0.22
mp-761873,KTiF4,36.0,11.0,0.36
mp-769218,Ni(PS3)2,12.0,7.0,0.24
mp-7700,SiB6,151.0,31.0,0.41
mp-775001,V3FeO8,7.0,12.0,-0.06
mp-7834,TaSe2,31.0,14.0,0.3
mp-7875,Ba(MgSi)2,49.0,40.0,0.18
mp-7892,Mn2AlB2,218.0,158.0,0.21
mp-7909,Al2CdTe4,26.0,16.0,0.24
mp-7911,KCuO,31.0,14.0,0.3
mp-7927,Nb4N5,270.0,157.0,0.26
mp-7959,KErO2,91.0,53.0,0.26
mp-7962,YbAgS2,68.0,23.0,0.35
mp-8059,SiO2,25.0,31.0,0.06
mp-8212,Cd(PtO2)3,192.0,70.0,0.34
mp-8279,Ba(CdP)2,51.0,32.0,0.24
mp-8291,BaTiF6,49.0,22.0,0.31
mp-8310,Li(NiP)2,117.0,41.0,0.34
mp-8446,K2CuP,22.0,11.0,0.29
mp-8540,NdRhC2,137.0,70.0,0.28
mp-856,SnO2,172.0,87.0,0.28
mp-8603,RbAgO,24.0,10.0,0.31
mp-861628,Er2TlCd,58.0,24.0,0.31
mp-861724,Ac2AgIr,72.0,12.0,0.42
mp-861884,AcGaTe2,43.0,15.0,0.35
mp-861889,Sc3Tc,88.0,-7.0,0.54
mp-861931,LiPt3,179.0,84.0,0.3
mp-861954,LiTaRu2,178.0,66.0,0.34
mp-862262,LaCdHg2,55.0,26.0,0.3
mp-862290,LiFeRh2,143.0,60.0,0.32
mp-862312,LiBePd2,123.0,59.0,0.29
mp-862336,Sc2IrPd,136.0,46.0,0.35
mp-862370,Sc2PdRu,129.0,54.0,0.32
mp-862432,Sc2AgIr,122.0,36.0,0.36
mp-862655,Ru3W,309.0,162.0,0.28
mp-862730,LiGaRh2,150.0,65.0,0.31
mp-862781,AlCrRu2,231.0,113.0,0.29
mp-862868,PbBr2,23.0,7.0,0.37
mp-862954,PmPd3,109.0,51.0,0.3
mp-864603,YbH2,50.0,35.0,0.22
mp-864624,HoZnRh2,132.0,47.0,0.34
mp-864742,Na3Sn,31.0,-1.0,0.51
mp-864769,LiYb2Tl,26.0,8.0,0.36
mp-864771,LiYb2Pd,38.0,15.0,0.33
mp-864772,LiSc2Au,73.0,41.0,0.26
mp-864835,Hf2CoIr,190.0,40.0,0.4
mp-864939,Hf2CuIr,167.0,45.0,0.38
mp-864957,MnSbRu2,205.0,94.0,0.3
mp-864978,Mg2AgAu,73.0,31.0,0.31
mp-864992,MnNbRu2,220.0,88.0,0.32
mp-865,CaB6,149.0,86.0,0.26
mp-865041,HfScRh2,157.0,-3429.0,-1.24
mp-865082,NaCaAu2,34.0,9.0,0.39
mp-865216,Dy2PdRu,104.0,39.0,0.33
mp-865484,V2CrRe,251.0,112.0,0.31
mp-865485,V2CrOs,265.0,125.0,0.3
mp-865577,Li2CdAu,37.0,17.0,0.3
mp-865665,TiReTc2,273.0,123.0,0.3
mp-865669,TiSiTc2,229.0,86.0,0.33
mp-865944,ThSnRu2,136.0,52.0,0.33
mp-865984,BaTlHg2,27.0,8.0,0.36
mp-866003,ErI3,3.0,2.0,0.24
mp-866004,Er2InAg,69.0,23.0,0.35
mp-866080,MgSc2Tl,55.0,23.0,0.31
mp-866086,MgSiIr2,214.0,88.0,0.32
mp-866150,LiSm2Os,72.0,29.0,0.32
mp-866202,Li2SnPt,72.0,-7.0,0.55
mp-866227,CaNdRh2,82.0,26.0,0.36
mp-867110,Sc2CoOs,140.0,63.0,0.3
mp-867258,LiZnPd2,108.0,46.0,0.31
mp-867277,Ho2MgAl,52.0,36.0,0.22
mp-867347,Al3Tc,145.0,86.0,0.25
mp-867816,TaRu3,265.0,117.0,0.31
mp-867896,ScZnCu2,102.0,30.0,0.36
mp-867897,ScTaRu2,205.0,101.0,0.29
mp-8927,TaCuN2,203.0,63.0,0.36
mp-9146,CdHgO2,77.0,14.0,0.41
mp-9440,YbAgSb,52.0,25.0,0.29
mp-961657,YNiP,26.0,34.0,0.04
mp-961668,AlVPt,124.0,22.0,0.42
mp-961689,ZrCoAs,72.0,-22.0,0.67
mp-962067,BaNaSn,21.0,3.0,0.44
mp-9664,K3BP2,18.0,7.0,0.32
mp-971,K2O,27.0,12.0,0.3
mp-971662,Si,76.0,45.0,0.25
mp-971975,SrHgO3,61.0,41.0,0.22
mp-972285,Sr3Li,11.0,10.0,0.17
mp-972309,Ta2BN3,217.0,83.0,0.33
mp-972657,SmBiAu2,79.0,10.0,0.44
mp-972692,SnPb,43.0,10.0,0.39
mp-972751,Si3Ge,90.0,245.0,-0.21
mp-973060,MgCr,58.0,25.0,0.32
mp-973199,Sb3Pb,52.0,4.0,0.46
mp-973415,LiLa3,25.0,8.0,0.35
mp-973738,GeBO3,141.0,400.0,-0.23
mp-974617,Hg3Pd,73.0,-9.0,0.56
mp-974743,Rb3V,51.0,1.0,0.49
mp-975216,RbReO3,175.0,103.0,0.25
mp-975275,RbNa2Sb,15.0,12.0,0.18
mp-975292,RbMoO3,159.0,100.0,0.24
mp-9755,HfGeO4,231.0,91.0,0.33
mp-975797,PrSm3,38.0,23.0,0.25
mp-975904,Li3Cd,19.0,10.0,0.29
mp-976725,Hf3Au,121.0,-27.0,0.62
mp-977273,MgRh5,198.0,85.0,0.31
mp-977369,HoMgHg2,63.0,25.0,0.33
mp-977384,ZnSiRh2,183.0,60.0,0.35
mp-977555,MgNbRh2,216.0,0.0,0.5
mp-977561,LiTaIr2,269.0,108.0,0.32
mp-977570,LiPr2Os,70.0,22.0,0.36
mp-978504,SmGaO3,188.0,103.0,0.27
mp-978507,SmTh3,54.0,31.0,0.26
mp-978552,SiRh3,237.0,105.0,0.31
mp-978596,Sm2Au2O5,133.0,58.0,0.31
mp-978976,Ti6Al16Pt7,137.0,57.0,0.32
mp-979459,Sm5Mg,38.0,19.0,0.29
mp-979614,Sm3Er,38.0,20.0,0.27
mp-979937,Yb3Ru,40.0,6.0,0.42
mp-980192,YbOs3,222.0,46.0,0.4
mp-981232,Ti3Nb,122.0,25.0,0.41
mp-982558,HoGeO3,138.0,61.0,0.31
mp-982779,NbTe,107.0,47.0,0.31
mp-983578,CsBiO3,59.0,58.0,0.13
mp-984702,CeDyZn2,71.0,25.0,0.34
mp-984721,BeGaCo2,201.0,99.0,0.29
mp-984765,Ba3Te,15.0,18.0,0.08
mp-984876,Ba2Pd2O5,97.0,39.0,0.32
mp-985591,Li6PS5Br,28.0,-3.0,0.56
mp-989527,Cs2NaNF6,30.0,-4.0,0.57
mp-989560,Cs2TlSiH6,19.0,8.0,0.33
mp-989561,NaTl2GaF6,116.0,2.0,0.49
mp-989562,Cs2LiTlF6,29.0,25.0,0.16
mp-989564,LaOsN3,221.0,101.0,0.3
mp-9912,Li2CeP2,55.0,35.0,0.24
mp-9924,Te,4.0,8.0,-0.13
mp-9953,HfP,148.0,86.0,0.26
mp-9964,Ti3TlN,150.0,47.0,0.36
mp-997004,CaAgO2,119.0,61.0,0.28
mp-997024,CsAuO2,26.0,10.0,0.32
mp-997027,AuO2F,17.0,9.0,0.27
mp-997100,SrAgO2,80.0,38.0,0.3
mp-997590,La8MgAl7O24,184.0,99.0,0.27
mp-998414,CuAgF3,88.0,22.0,0.38
mp-998894,YC,68.0,14.0,0.4
mp-999047,Ti2MnSi,512.0,9.0,0.49
mp-999120,TcB,328.0,199.0,0.25
mp-999139,TaHgS2,24.0,13.0,0.27
mp-999198,BMo,309.0,191.0,0.24
mp-999357,NbN,247.0,150.0,0.25
mp-999396,Nb3Ni,48.0,62.0,0.05
mp-1008682,TiS2,60.0,31.0,0.28
mp-1017514,MgSiN2,213.0,180.0,0.17
mp-1025263,Ti2NiS4,83.0,55.0,0.23
mp-1025378,V2FeTe4,54.0,35.0,0.23
mp-1025461,PrBrO2,55.0,24.0,0.31
mp-18732,TiNiO3,177.0,82.0,0.3
mp-19407,MnWO4,127.0,55.0,0.31
mp-19963,TiFe2Sn,181.0,106.0,0.26
mp-20201,NdZnSn,59.0,43.0,0.21
mp-23171,PrBi,48.0,28.0,0.26
mp-2341,Li3N,65.0,46.0,0.22
mp-23879,Ca(HO)2,20.0,23.0,0.08
mp-2604,MgTe2,38.0,22.0,0.26
mp-30444,Be22W,133.0,150.0,0.09
mp-33723,BiTeBr,7.0,5.0,0.24
mp-4454,CeCo3B2,227.0,111.0,0.29
mp-542569,AlRu,202.0,103.0,0.28
mp-555296,YbTaO4,103.0,42.0,0.32
mp-5564,Pr(AgGe)2,70.0,42.0,0.25
mp-569601,ErSi2Rh3,172.0,100.0,0.26
mp-5702,Cu3SbS4,68.0,26.0,0.33
mp-5784,Na2GeO3,53.0,28.0,0.28
mp-606949,C,119.0,93.0,0.19
mp-703260,PbWO4,67.0,22.0,0.35
mp-7048,Al2O3,186.0,101.0,0.27
mp-7431,Sr(ZnSb)2,42.0,18.0,0.31
mp-753306,YUO4,182.0,123.0,0.22
mp-754596,RbGaO2,93.0,8.0,0.46
mp-755252,DyHO2,134.0,37.0,0.37
mp-763099,Li2VO2F,104.0,74.0,0.21
mp-776216,AlCoO3,77.0,38.0,0.29
mp-8605,SrSbPt,60.0,24.0,0.32
mp-862329,ScI2,38.0,20.0,0.28
mp-862362,Sc2TcPt,141.0,61.0,0.31
mp-863707,KNa2Bi,17.0,11.0,0.24
mp-863733,Pm2RuAu,98.0,27.0,0.38
mp-865020,HfMgIr2,185.0,99.0,0.27
mp-865025,HfTaRe2,273.0,117.0,0.31
mp-865533,Ti2ReOs,239.0,108.0,0.3
mp-866005,Dy2TlCd,56.0,26.0,0.3
mp-867112,AcInTe2,42.0,18.0,0.31
mp-867119,LiHfPd2,117.0,21.0,0.41
mp-867133,Ba2Sc2O5,106.0,47.0,0.31
mp-867168,Sr2SbAu,38.0,23.0,0.25
mp-867192,Sr2AsAu,28.0,28.0,0.13
mp-867194,Sr(MgAs)2,48.0,35.0,0.2
mp-867205,LiGa3,11.0,4.0,0.33
mp-867231,TbI3,3.0,2.0,0.28
mp-867300,Rb2Hf2O5,87.0,39.0,0.3
mp-867303,AgAu3,126.0,16.0,0.44
mp-867307,Be2RuAu,209.0,86.0,0.32
mp-867335,K2SbAu,15.0,10.0,0.23
mp-867339,CsK2Bi,8.0,7.0,0.19
mp-867341,CsAcTe2,36.0,9.0,0.38
mp-867355,TeBr2,4.0,1.0,0.36
mp-867568,CsTi6O12,119.0,53.0,0.3
mp-867689,LiCuS,25.0,20.0,0.18
mp-867695,Li2WS4,6.0,3.0,0.28
mp-867699,Li4TiS4,25.0,14.0,0.26
mp-867700,Li3CuS2,38.0,21.0,0.27
mp-867875,SmCl3,4.0,3.0,0.25
mp-867891,ErCl3,5.0,3.0,0.26
mp-867893,SmI3,3.0,2.0,0.26
mp-972323,TaNbTc2,195.0,108.0,0.27
mp-972752,Si3As,83.0,-72.0,1.11
mp-973066,ScGeRh2,145.0,-33.0,0.62
mp-977392,Ho2MgIn,58.0,28.0,0.29
mp-977580,MgSc2Al,65.0,42.0,0.23
mp-978527,SmDyTl2,53.0,19.0,0.34
mp-979115,Ti2Ag,105.0,41.0,0.33
mp-981397,YbPrMg2,34.0,18.0,0.28
mp-985282,Ag3Ge,75.0,21.0,0.37
mp-997569,AlP,8.0,4.0,0.3
mp-999439,Nb3Cr,123.0,22.0,0.41
mvc-10478,CaBi4O9,86.0,37.0,0.31
mvc-11115,TiO2,88.0,36.0,0.32
mvc-11152,YSbO3,89.0,21.0,0.39
mvc-11196,AgN,121.0,23.0,0.41
mvc-11231,SbN,112.0,-28.0,0.64
mvc-11235,BiN,114.0,-12.0,0.55
mvc-11548,CrO3,224.0,101.0,0.3
mvc-11561,MnO2,38.0,26.0,0.22
mvc-12484,CaTi2O4,157.0,87.0,0.27
mvc-13239,TiF4,8.0,4.0,0.28
mvc-13303,VN,308.0,100.0,0.35
mvc-13555,CrS2,15.0,13.0,0.17
mvc-14047,MnS2,19.0,16.0,0.18
mvc-14149,CoO2,83.0,35.0,0.31
mvc-14600,AlSbO3,147.0,65.0,0.31
mvc-14934,CaFeWO6,133.0,62.0,0.3
mvc-14991,SrCuSO,42.0,48.0,0.09
mvc-15239,AlCuO3,241.0,14.0,0.47
mvc-15350,Ca2Sn3O8,107.0,45.0,0.31
mvc-15458,ZnNiF6,34.0,-2.0,0.53
mvc-15643,WO3,37.0,61.0,-0.03
mvc-15683,MgSnF6,49.0,24.0,0.29
mvc-15843,ZnFeF6,22.0,17.0,0.2
mvc-16021,CaTiS2,80.0,51.0,0.24
mvc-2597,Ba2TlBi2O7,26.0,4.0,0.42
mvc-2949,SbO2,73.0,37.0,0.28
mvc-3245,Sr2FeSO3,77.0,152.0,-0.1
mvc-4299,Al(SnO2)2,128.0,46.0,0.34
mvc-4415,Ta2O5,199.0,61.0,0.36
mvc-5863,Mg2TaWO6,163.0,83.0,0.28
mvc-5884,Mg(CuO2)2,63.0,27.0,0.31
mvc-5892,Zn(AgO2)2,64.0,27.0,0.31
mvc-5897,Zn(CuO2)2,70.0,34.0,0.29
mvc-6281,Zn(CuO2)2,103.0,73.0,0.21
mvc-6389,WO2,116.0,29.0,0.38
mvc-6477,NiO2,82.0,47.0,0.26
mvc-652,Ti(WO4)2,83.0,44.0,0.27
mvc-6615,BiO2,123.0,45.0,0.34
mvc-678,Ti(WO4)2,26.0,21.0,0.18
mvc-6921,MgMn2O4,139.0,44.0,0.36
mvc-7054,TiS2,1.0,7.0,-0.66
mvc-7058,BiS2,7.0,1.0,0.41
mvc-7194,BaYCuSbO5,77.0,34.0,0.31
mvc-7786,Zn(WO2)2,139.0,46.0,0.35
mvc-7792,Mg(MoO2)2,97.0,44.0,0.3
mvc-8365,MgFe2O5,87.0,26.0,0.36
mvc-8959,CaLaFeSbO6,132.0,42.0,0.35
mvc-916,BaMgV4O8,103.0,36.0,0.34