material_id,pretty_formula,K_VRH,G_VRH,poisson_ratio
mp-866271,LiNiO2,116.0,-20.0,0.59
mp-866296,AlCuPd2,152.0,4.0,0.49
mp-867156,ScGaRu2,172.0,67.0,0.33
mp-867178,PrMgCd2,52.0,24.0,0.3
mp-867255,LiZn2Au,83.0,14.0,0.42
mp-867260,CdAgPd2,116.0,21.0,0.42
mp-867357,Tc3Ni,284.0,150.0,0.28
mp-867771,TaCuRh2,224.0,51.0,0.39
mp-867812,LiAlNi2,120.0,-33.0,0.65
mp-867854,Ca2ZnRh,49.0,18.0,0.33
mp-867863,SmCu4Ag,97.0,33.0,0.35
mp-867923,ScGaPt2,148.0,-112.0,1.0
mp-867979,LaInHg2,53.0,8.0,0.43
mp-8772,ScB12,218.0,188.0,0.16
mp-899,InRh,151.0,-1687.0,-1.55
mp-9166,MgCN2,96.0,35.0,0.34
mp-9251,TlTe3Pt2,22.0,15.0,0.23
mp-9264,NaTeAu,30.0,5.0,0.42
mp-931,ThP,114.0,54.0,0.3
mp-9330,CdPS3,9.0,16.0,-0.07
mp-9569,Ca(ZnP)2,67.0,46.0,0.22
mp-9580,TlGaSe2,1.0,8.0,-0.59
mp-9610,Li2CN2,50.0,17.0,0.35
mp-961678,ScCoTe,93.0,55.0,0.26
mp-961710,VSiPt,196.0,46.0,0.39
mp-962066,NaLiTe,16.0,-56.0,-9.98
mp-962071,MgScTl,26.0,38.0,0.01
mp-971853,Zn3B,91.0,-16.0,0.59
mp-971924,DyYAg2,68.0,30.0,0.31
mp-972077,TcGe3,104.0,6.0,0.47
mp-972087,ZrH3,130.0,86.0,0.23
mp-972504,Sm2AlZn,51.0,32.0,0.24
mp-972601,SmLuMg2,35.0,17.0,0.29
mp-972861,Sc2TlTc,69.0,39.0,0.26
mp-972908,La3Dy,28.0,13.0,0.3
mp-973229,ScNb,93.0,32.0,0.35
mp-973276,HoLuCd2,61.0,19.0,0.36
mp-973343,Li2MgHg,34.0,18.0,0.28
mp-973364,Mg,35.0,18.0,0.28
mp-973533,FeAg3,133.0,8.0,0.47
mp-973564,La2TlZn,67.0,-51.0,1.01
mp-973869,LaCdO3,106.0,35.0,0.35
mp-974270,Na3Al,17.0,5.0,0.37
mp-974335,RuRh3,243.0,155.0,0.24
mp-974417,Re3Sb,200.0,44.0,0.4
mp-974882,Rb3Mo,0.0,13.0,-0.85
mp-9752,Li2NbF6,59.0,-769.0,-1.44
mp-975296,RbHoO3,69.0,6.0,0.45
mp-975651,PrTm3,41.0,24.0,0.25
mp-975880,PrSmMg2,40.0,24.0,0.25
mp-975932,PrLuIn2,56.0,22.0,0.33
mp-976185,NaBeO3,91.0,35.0,0.33
mp-976982,Li2Mg,21.0,4.0,0.42
mp-977207,Li2Mg,21.0,5.0,0.39
mp-977385,NpH3,496.0,-52.0,0.55
mp-977455,PaAgO3,142.0,45.0,0.36
mp-978269,MgZn2,63.0,35.0,0.27
mp-978274,MgCd,42.0,17.0,0.33
mp-978275,MgB7,184.0,183.0,0.13
mp-978519,Sm2AlCd,57.0,29.0,0.28
mp-978525,Si3Mo,130.0,-40.0,0.67
mp-978545,Sm2AgHg,58.0,19.0,0.35
mp-978549,SmLuZn2,46.0,23.0,0.28
mp-979423,YGa3,54.0,37.0,0.22
mp-979923,SmMn3,69.0,29.0,0.32
mp-980001,YbPr3,27.0,14.0,0.28
mp-980946,Sr3Cr,32.0,-2.0,0.54
mp-981550,RbTmO3,83.0,7.0,0.46
mp-982010,Pr2CdAg,49.0,19.0,0.33
mp-982246,PbAu3,84.0,7.0,0.46
mp-983559,CePmZn2,35.0,24.0,0.22
mp-983604,Er3As,57.0,17.0,0.36
mp-984240,CsCaO3,21.0,23.0,0.11
mp-984705,ErRu3,180.0,21.0,0.44
mp-985439,BaPAu,57.0,32.0,0.26
mp-985440,CrGa3P4,100.0,36.0,0.34
mp-989193,SnBrF,275.0,-20.0,0.54
mp-989513,SrWN3,102.0,48.0,0.3
mp-989514,Cs2NaSbCl6,20.0,11.0,0.27
mp-989523,Rb2NaAsF6,8.0,25.0,-0.26
mp-989537,Cs2TlInF6,28.0,27.0,0.14
mp-989573,Rb2BrCl6F,25.0,12.0,0.3
mp-9906,Y(Re2Si)2,239.0,103.0,0.31
mp-997031,MgCuO2,134.0,65.0,0.29
mp-997098,CuPtO2,155.0,39.0,0.39
mp-9972,YSi,89.0,65.0,0.21
mp-9983,Ta2Se3,81.0,44.0,0.27
mp-999258,Sc2MnGe,60.0,26.0,0.31
mp-999473,ZnN,164.0,56.0,0.35
mp-999543,MnCo3,70.0,102.0,0.01
mvc-11960,MgV2O5,83.0,-3.0,0.52
mvc-13995,YTiO3,162.0,63.0,0.33
mvc-15989,YWO3,175.0,57.0,0.35
mvc-3559,YMoO3,152.0,19.0,0.44
mp-1,Cs,2.0,0.0,0.38
mp-1001826,VN,225.0,22.0,0.45
mp-1002207,ReN,307.0,33.0,0.45
mp-1006226,ZnBi,38.0,16.0,0.31
mp-1007776,TlP,14.0,20.0,0.02
mp-1007907,ErTlTe2,29.0,19.0,0.23
mp-1008489,CdN,84.0,-12.0,0.58
mp-1008601,ZrAg2,116.0,17.0,0.43
mp-1008873,MnCoSe,89.0,34.0,0.33
mp-1008874,MnCoTe,112.0,67.0,0.25
mp-1008912,AgC,131.0,-38.0,0.66
mp-1008999,LaSe,40.0,38.0,0.14
mp-1009222,MnTe,20.0,15.0,0.19
mp-1009646,ReN,374.0,-33.0,0.54
mp-1011377,CeSe2,59.0,24.0,0.32
mp-1013553,Sr3AsP,27.0,37.0,0.03
mp-1014231,Hf2Zn,109.0,59.0,0.27
mp-1014303,Cr3N2,239.0,143.0,0.25
mp-1016873,CaHfO3,136.0,90.0,0.23
mp-1017,Zr3O,134.0,55.0,0.32
mp-1017529,VCo3,297.0,161.0,0.27
mp-1017563,GaPt3C,184.0,-28.0,0.58
mp-1017580,KMgH3,21.0,-18.0,1.1
mp-1018026,LiAg,44.0,15.0,0.34
mp-1018051,KTiS2,58.0,35.0,0.25
mp-1018063,ErH3,99.0,22.0,0.4
mp-1018101,AlCo3,187.0,46.0,0.39
mp-1018149,ScCu2,115.0,44.0,0.33
mp-1018165,PtC,236.0,32.0,0.44
mp-1018647,YbNiH3,91.0,56.0,0.25
mp-1018649,BC5,378.0,347.0,0.15
mp-1018712,HfGa4Co,79.0,57.0,0.21
mp-1018814,NdSbTe,58.0,24.0,0.32
mp-1018849,OsN,321.0,128.0,0.32
mp-1019255,SmTlCd,51.0,27.0,0.27
mp-1019508,AlGa3N4,178.0,107.0,0.25
mp-1021489,IrO3,178.0,97.0,0.27
mp-1021666,AlSi,88.0,-14.0,0.58
mp-1024990,LuB2Ir3,248.0,125.0,0.28
mp-1025022,HoInPt4,170.0,58.0,0.35
mp-1025030,ErPt5,188.0,72.0,0.33
mp-1025123,UNi2B2C,209.0,93.0,0.31
mp-1025151,Cr2NiSe4,75.0,35.0,0.3
mp-1025155,LuGa5Co,92.0,46.0,0.29
mp-1025161,InPPd5,164.0,64.0,0.33
mp-1025172,Ho(TiGa2)2,94.0,60.0,0.24
mp-1025182,V2FeSe4,60.0,38.0,0.24
mp-1025225,ErGa5Co,100.0,43.0,0.31
mp-1025258,ZnPPd5,150.0,57.0,0.33
mp-1025270,GaPPt5,181.0,72.0,0.32
mp-1025302,HgPPd5,164.0,46.0,0.37
mp-1029338,LiV2N3,148.0,70.0,0.29
mp-1029479,Ca(InN)2,90.0,-2.0,0.51
mp-1029616,Ba(TaN2)2,41.0,26.0,0.24
mp-1029640,Ba3OsN3,48.0,26.0,0.27
mp-1029782,Ca3W3N5,110.0,49.0,0.31
mp-10314,Yb(ZnAs)2,60.0,38.0,0.24
mp-1037,PrPt5,177.0,72.0,0.32
mp-10381,K2CuSb,17.0,8.0,0.29
mp-1039229,Ca3Zn,24.0,-6.0,0.64
mp-1039434,Mg5Cd,40.0,14.0,0.34
mp-1050,Ni3S4,115.0,43.0,0.33
mp-1058,PdF2,94.0,18.0,0.41
mp-10649,Si,85.0,32.0,0.33
mp-10651,YbSi,57.0,38.0,0.22
mp-1068,CuS2,77.0,35.0,0.31
mp-10680,BaSe,38.0,17.0,0.31
mp-10700,MgNi3C,176.0,59.0,0.35
mp-10761,FeTe,79.0,51.0,0.24
mp-1077,B2Ru,286.0,168.0,0.25
mp-10844,Te2Ir,121.0,48.0,0.32
mp-10878,Ca(MnAl2)4,90.0,70.0,0.19
mp-10953,Sc2CdS4,69.0,23.0,0.35
mp-11011,RbNdTe4,23.0,14.0,0.25
mp-111,Ne,2.0,1.0,0.37
mp-1114,VP,171.0,112.0,0.23
mp-11274,BePd,171.0,-114.0,0.93
mp-11361,MgCuSn,63.0,30.0,0.3
mp-11453,HfPd3,179.0,85.0,0.3
mp-11464,MgHg2,41.0,12.0,0.36
mp-11465,Mg5Hg3,43.0,22.0,0.28
mp-11469,PrHg,56.0,17.0,0.36
mp-11501,MnNi3,174.0,93.0,0.27
mp-11513,NbNi3,209.0,89.0,0.31
mp-11553,TlPt,514.0,9.0,0.49
mp-11658,Cu2SnSe3,55.0,22.0,0.32
mp-11824,Ca3PN,63.0,53.0,0.17
mp-12075,Tb(FeB)2,123.0,74.0,0.25
mp-12083,CrIr3,307.0,214.0,0.22
mp-12595,MoRh,266.0,134.0,0.28
mp-12599,PrTl,51.0,16.0,0.35
mp-12693,Mg2Rh,65.0,40.0,0.25
mp-12700,NbPt3,250.0,100.0,0.32
mp-12760,Zr6Al2Co,106.0,51.0,0.29
mp-12781,ScAl2Ni,107.0,64.0,0.25
mp-12814,Ba3SbN,27.0,11.0,0.32
mp-12854,ZnCu2GeTe4,47.0,22.0,0.3
mp-13053,SrSi,50.0,31.0,0.24
mp-131,Zr,94.0,34.0,0.34
mp-1339,NbIr3,313.0,204.0,0.23
mp-13459,NaCdSb,30.0,16.0,0.28
mp-13496,ZrPd,143.0,2.0,0.49
mp-13641,TiCdO3,150.0,48.0,0.35
mp-13852,Ge3N4,175.0,80.0,0.3
mp-13853,P3Ir,170.0,114.0,0.23
mp-13900,Sr(CuO)2,104.0,25.0,0.39
mp-13963,HfSiTe,31.0,27.0,0.16
mp-140,Ga,49.0,6.0,0.44
mp-14018,K3As,14.0,8.0,0.25
mp-1429,SmCo5,144.0,41.0,0.37
mp-14344,Yb2(NiB2)3,158.0,119.0,0.2
mp-14433,NaGe2N3,135.0,78.0,0.26
mp-14587,ZnP4,63.0,35.0,0.27
mp-1475,Be12Mo,141.0,150.0,0.11
mp-1476,ScS,101.0,51.0,0.28
mp-1509,Sn2S3,17.0,11.0,0.23
mp-1521,Sb7Mo3,110.0,55.0,0.29
mp-1522,FeS2,150.0,125.0,0.17
mp-1525,CeTe,53.0,10.0,0.41
mp-15622,HfSe3,16.0,10.0,0.24
mp-15687,KZnAs,31.0,21.0,0.22
mp-15793,LiTbSe2,40.0,26.0,0.23
mp-16032,Pr2TeO2,67.0,33.0,0.29
mp-16033,Sm2TeO2,72.0,36.0,0.28
mp-162,Yb,15.0,9.0,0.25
mp-16334,Fe3PdN,187.0,85.0,0.3
mp-1638,SrAl2,48.0,37.0,0.2
mp-16648,LiSn4Rh,64.0,40.0,0.24
mp-16886,CdAu,92.0,22.0,0.39
mp-16913,Ag2SeO3,29.0,8.0,0.37
mp-17,Cr,250.0,115.0,0.3
mp-1734,CaZn5,61.0,39.0,0.24
mp-1762,ErRh2,144.0,61.0,0.31
mp-1768,LaOs2,183.0,-279.0,2.04
mp-1794,BeO,156.0,158.0,0.12
mp-1883,SnTe,40.0,28.0,0.22
mp-18918,ZnWO4,142.0,54.0,0.33
mp-1911,CeSn3,60.0,31.0,0.28
mp-19127,Sr2FeMoO6,161.0,-15.0,0.55
mp-19128,CoO,130.0,33.0,0.38
mp-19413,AlWO4,206.0,120.0,0.26
mp-1953,TiAl,115.0,70.0,0.25
mp-19800,Fe11Si5,218.0,109.0,0.29
mp-19814,NiAs2,114.0,54.0,0.29
mp-19877,ZrNi2Sn,144.0,39.0,0.37
mp-19983,TiCuSn,103.0,52.0,0.28
mp-20023,PrIn,55.0,20.0,0.34
mp-20049,LiFeP,80.0,51.0,0.24
mp-20111,EuAl2,61.0,43.0,0.21
mp-20281,DySiIr,146.0,73.0,0.29
mp-20327,TiP2,131.0,91.0,0.22
mp-20549,CaPb3,60.0,7.0,0.44
mp-20599,PdPb2,66.0,18.0,0.38
mp-20697,ZrNiSb,135.0,54.0,0.32
mp-20777,SmCoGe,84.0,52.0,0.25
mp-20900,Cu3Sb,95.0,25.0,0.38
mp-20952,TiNiSb,128.0,57.0,0.31
mp-20999,La3InN,74.0,45.0,0.25
mp-21096,CaMnSi,45.0,35.0,0.19
mp-21135,Pr3InO,66.0,41.0,0.24
mp-21260,FeSn,100.0,54.0,0.27
mp-21449,NbCoP,238.0,117.0,0.29
mp-21505,YAgPb,66.0,36.0,0.27
mp-2156,TiS2,18.0,14.0,0.19
mp-2168,SnSe,28.0,14.0,0.28
mp-2182,SnAs,160.0,44.0,0.37
mp-22159,UNiAs2,112.0,53.0,0.3
mp-22270,CoP,193.0,111.0,0.26
mp-22271,Cu(AsO2)2,20.0,11.0,0.26
mp-22275,YSnPt,108.0,41.0,0.33
mp-22350,Nd3SnN,36.0,4.0,0.45
mp-22367,PdPbO2,84.0,22.0,0.38
mp-22400,MnCu2SnSe4,54.0,20.0,0.34
mp-22558,TiSi,132.0,40.0,0.36
mp-2263,ScIr2,220.0,100.0,0.3
mp-22691,InSe,11.0,6.0,0.26
mp-22873,SmBi,52.0,29.0,0.27
mp-22882,YbBr2,20.0,11.0,0.26
mp-22895,CuI,36.0,15.0,0.32
mp-22913,CuBr,43.0,12.0,0.37
mp-22967,Li2FeBr4,20.0,13.0,0.24
mp-22996,SbSeI,9.0,2.0,0.38
mp-23072,BiBrO,16.0,11.0,0.22
mp-23255,UBr3,31.0,11.0,0.34
mp-2345,Dy2O3,142.0,64.0,0.31
mp-2349,YCd3,56.0,24.0,0.31
mp-23499,K2SnCl6,12.0,6.0,0.28
mp-24151,DyH2,83.0,49.0,0.25
mp-2435,HoCo5,135.0,35.0,0.38
mp-2466,ErAu2,104.0,40.0,0.33
mp-24668,CsHF2,19.0,8.0,0.33
mp-253,ScCo2,142.0,48.0,0.35
mp-2547,YbPd,53.0,15.0,0.37
mp-255,NaHg,17.0,6.0,0.34
mp-258,ZrV2,140.0,12.0,0.46
mp-2630,SrC2,48.0,8.0,0.42
mp-27296,ZrTi2O,105.0,33.0,0.36
mp-27418,KAuO2,40.0,16.0,0.32
mp-27488,Ta3N5,241.0,99.0,0.32
mp-27668,Mg2Ga5,45.0,33.0,0.2
mp-27734,CrBr3,8.0,5.0,0.26
mp-2780,Fe3Se4,88.0,51.0,0.26
mp-2783,Ta2Si,215.0,112.0,0.28
mp-28044,TmCl3,12.0,14.0,0.09
mp-2822,TmSe,80.0,22.0,0.37
mp-2824,AlPd2,158.0,51.0,0.35
mp-28480,Sc2NCl2,26.0,16.0,0.24
mp-2853,GaN,209.0,140.0,0.23
mp-28568,Rb3CuO2,24.0,9.0,0.33
mp-28753,NdI2,11.0,8.0,0.22
mp-29484,K4HgAs2,15.0,7.0,0.29
mp-29623,SrZnBi2,32.0,17.0,0.28
mp-29661,Si5Pt6,181.0,69.0,0.33
mp-29806,Cs2PdI6,10.0,4.0,0.33
mp-30069,CuNi2Sb,149.0,25.0,0.42
mp-3022,TbBPd3,137.0,6.0,0.48
mp-30301,LiClO4,27.0,14.0,0.27
mp-30357,Sr3Ag2,21.0,10.0,0.3
mp-30443,Be17Ru3,152.0,116.0,0.19
mp-30454,ErBiPt,91.0,42.0,0.3
mp-30461,BiPd2Pb,84.0,23.0,0.37
mp-30483,CaZn,32.0,13.0,0.32
mp-30485,Ca3Zn,22.0,9.0,0.32
mp-30502,TmCd3,55.0,28.0,0.28
mp-3053,DyAlNi,100.0,33.0,0.35
mp-30551,GaFeCo2,191.0,81.0,0.31
mp-30580,SrGaCu2,53.0,26.0,0.29
mp-30587,MgInCu4,97.0,24.0,0.39
mp-30651,MgGa2,50.0,9.0,0.41
mp-30656,TiGaNi,147.0,69.0,0.3
mp-30721,Hg5Pd2,68.0,1.0,0.49
mp-30760,Li3Pb,23.0,7.0,0.35
mp-30778,Mg5Rh2,71.0,32.0,0.3
mp-30820,Li2AlRh,80.0,37.0,0.3
mp-30836,TaPd3,214.0,89.0,0.32
mp-3097,Tb(SiRh)2,157.0,90.0,0.26
mp-31326,Mg2In,40.0,12.0,0.36
mp-31405,Mg4AlSi6,198.0,4.0,0.49
mp-316,MnV,243.0,122.0,0.28
mp-31900,TaMn2O3,133.0,41.0,0.36
mp-3255,SrCu2O3,95.0,43.0,0.3
mp-331,ScAl,78.0,41.0,0.28
mp-3405,NaAl11O17,153.0,67.0,0.31
mp-3524,LiPN2,143.0,98.0,0.22
mp-3654,RbCaF3,46.0,26.0,0.26
mp-375,UO3,150.0,63.0,0.32
mp-3849,TlFeS2,26.0,9.0,0.34
mp-3988,BaCu3O4,75.0,31.0,0.32
mp-4,Nd,33.0,10.0,0.37
mp-42,Ta,195.0,59.0,0.36
mp-4228,Nd(CoSi)2,141.0,88.0,0.24
mp-4283,LaSi2Pt,129.0,60.0,0.3
mp-432,NbRu,237.0,53.0,0.4
mp-436,SmRh,95.0,30.0,0.36
mp-4382,YB2Ru3,225.0,112.0,0.29
mp-4563,Ti3TlC,146.0,83.0,0.26
mp-4612,TiCo2Ge,179.0,78.0,0.31
mp-473,Na3P11,13.0,6.0,0.3
mp-4744,Ca(NiAs)2,83.0,40.0,0.29
mp-485,ZrNi3,170.0,70.0,0.32
mp-4901,Y2MgCu2,62.0,17.0,0.37
mp-4913,LiGa2Rh,125.0,28.0,0.4
mp-505569,CeH2,67.0,32.0,0.29
mp-510268,Cs2Pd3S4,17.0,4.0,0.38
mp-510625,CrCuO2,155.0,58.0,0.33
mp-5135,Dy(CoB)2,165.0,107.0,0.23
mp-5409,Y4Al2O9,132.0,64.0,0.29
mp-543001,Zr5Sn4,104.0,62.0,0.25
mp-545467,Li3(CuO2)2,51.0,31.0,0.25
mp-546500,NaCNO,27.0,8.0,0.37
mp-5478,TlPd3O4,141.0,37.0,0.38
mp-5497,Er(CoGe)2,127.0,70.0,0.27
mp-551250,ErBi2IO4,67.0,37.0,0.26
mp-552028,Nd2Ti2S2O5,127.0,54.0,0.31
mp-552663,LiScAs2O7,95.0,48.0,0.29
mp-553432,TiO2,14.0,14.0,0.13
mp-554212,Tl2Ni3S2,54.0,22.0,0.32
mp-555037,TaS2,22.0,8.0,0.33
mp-555576,KNaS2O7,23.0,11.0,0.3
mp-556,ZrNi,138.0,35.0,0.38
mp-556076,Sr2Co2O5,88.0,45.0,0.28
mp-558078,Rb2NaFeF6,57.0,31.0,0.27
mp-561894,Ba2CoMoO6,121.0,64.0,0.28
mp-5622,Nd(CoP)2,117.0,85.0,0.21
mp-566278,WO3,194.0,82.0,0.32
mp-567220,Hf2SbP,124.0,70.0,0.26
mp-567416,Ho3Mn3Ga2Si,66.0,44.0,0.23
mp-567480,MnSbPt,84.0,17.0,0.4
mp-567510,BaSn2,33.0,18.0,0.27
mp-567652,Cs2LiYCl6,19.0,9.0,0.3
mp-567657,K(CuSe)2,34.0,13.0,0.33
mp-567747,Co7Mo6,264.0,126.0,0.29
mp-567967,LiGaI4,2.0,1.0,0.27
mp-568346,HfBrN,38.0,18.0,0.3
mp-568436,Sr7GeN6,61.0,38.0,0.24
mp-568598,Cu2HgI4,18.0,9.0,0.29
mp-568696,SiC,213.0,187.0,0.16
mp-568961,Ba(FeAs)2,77.0,42.0,0.27
mp-569,NdCo5,118.0,32.0,0.38
mp-569089,Dy(PRu)2,157.0,99.0,0.24
mp-569511,NiTePd,120.0,38.0,0.36
mp-569679,ZnSe,11.0,7.0,0.22
mp-570017,MgAu3,111.0,32.0,0.37
mp-570409,PrAl3,67.0,54.0,0.18
mp-570430,TaCo2,222.0,94.0,0.31
mp-570604,TaN,347.0,179.0,0.28
mp-570670,YOs2,212.0,49.0,0.39
mp-570963,TaCr2,243.0,87.0,0.34
mp-571096,FeCl2,8.0,6.0,0.2
mp-571343,Cs(CoSe)2,41.0,26.0,0.24
mp-571648,Rb2MnCl6,13.0,5.0,0.33
mp-5720,Ho(SiRu)2,159.0,79.0,0.29
mp-579496,Fe3PtN,214.0,100.0,0.3
mp-580287,Zr3Cu,99.0,23.0,0.39
mp-580886,ZrIN,22.0,13.0,0.25
mp-5821,TaAgS3,75.0,34.0,0.3
mp-5924,MgSiO3,191.0,118.0,0.24
mp-597,TiNi,151.0,39.0,0.38
mp-6008,Ca3Al2(SiO4)3,154.0,97.0,0.24
mp-601,PrP,74.0,49.0,0.23
mp-605790,Ba,8.0,-10.0,1.57
mp-608,TiCo3,194.0,83.0,0.31
mp-612740,In2Se3,19.0,11.0,0.25
mp-619461,WO3,61.0,54.0,0.16
mp-622570,Ti2Cu3,133.0,58.0,0.31
mp-623024,TiCdF6,10.0,15.0,0.0
mp-628606,Rb2PdI6,9.0,4.0,0.3
mp-631374,TiTl2W,22.0,-64.0,31.34
mp-631452,NbCrW,591.0,-16.0,0.51
mp-631525,KHg2B,22.0,11.0,0.28
mp-631573,Re2AuSe,207.0,6.0,0.49
mp-634,HgS,8.0,7.0,0.14
mp-636331,V3Pt,156.0,48.0,0.36
mp-639874,Ta2Al,162.0,54.0,0.35
mp-649479,Ca5(InSb3)2,36.0,21.0,0.26
mp-673171,Br,21.0,-19.0,1.14
mp-675283,TlPF6,6.0,10.0,-0.05
mp-675460,LiTiCl3,36.0,17.0,0.3
mp-675626,Cu3AsSe4,62.0,22.0,0.34
mp-676,CaN6,45.0,22.0,0.29
mp-685991,Li5SiP3,35.0,27.0,0.2
mp-696752,KP(HO2)2,27.0,17.0,0.24
mp-6968,Cs2KCuF6,33.0,14.0,0.32
mp-6980,ScCuS2,84.0,38.0,0.31
mp-7225,CeAl2Pt3,143.0,76.0,0.27
mp-7477,RbErO2,82.0,50.0,0.25
mp-752843,Li2CuF4,43.0,43.0,0.13
mp-754823,ErTlO2,91.0,39.0,0.31
mp-754825,NaTmO2,84.0,58.0,0.22
mp-755455,CuTeO4,70.0,41.0,0.25
mp-7555,LiMgSnPd,39.0,12.0,0.36
mp-755646,LiCuO,38.0,19.0,0.28
mp-755689,ErClO,24.0,13.0,0.27
mp-756490,Li6MnS4,44.0,27.0,0.25
mp-7600,Th(FeSi)2,154.0,88.0,0.26
mp-760403,CaCd3O4,137.0,49.0,0.34
mp-760414,Ti3PdO,167.0,42.0,0.38
mp-760432,Cu2O3,93.0,45.0,0.29
mp-7623,MgAs4,43.0,25.0,0.26
mp-7632,NiMoP,241.0,95.0,0.33
mp-768864,KNdO2,66.0,37.0,0.26
mp-7725,Na2UO4,70.0,32.0,0.3
mp-777595,LiFeF4,49.0,16.0,0.35
mp-780260,TiGeO3,28.0,17.0,0.25
mp-7822,Sc5Si3,89.0,72.0,0.18
mp-7908,Al2ZnTe4,29.0,19.0,0.23
mp-8045,V5P3N,210.0,93.0,0.31
mp-8145,RbScO2,95.0,58.0,0.25
mp-8375,Th(SiTc)2,143.0,35.0,0.39
mp-8454,KF,21.0,16.0,0.19
mp-8560,SF6,6.0,2.0,0.34
mp-861,Hf2Ni,130.0,20.0,0.43
mp-861953,AlFeRh2,193.0,38.0,0.41
mp-862291,BeGaRh2,203.0,99.0,0.29
mp-8623,K2Te2Pt,22.0,10.0,0.3
mp-862321,LiAsPd2,104.0,28.0,0.37
mp-862368,Sc2NiPt,125.0,46.0,0.34
mp-862691,Al2FeCo,181.0,117.0,0.23
mp-862740,Sr2TlCd,51.0,21.0,0.32
mp-862761,PrBiAu2,74.0,10.0,0.44
mp-862779,Tc3Os,326.0,176.0,0.27
mp-862878,PmAg3,68.0,-20.0,0.66
mp-862886,CaPmPt2,89.0,34.0,0.33
mp-862887,LiSc2Os,97.0,40.0,0.32
mp-862936,PmMgAg2,62.0,-6.0,0.55
mp-862945,NaPmTe2,43.0,12.0,0.37
mp-863654,Pm2CdSi,64.0,21.0,0.36
mp-863655,Pm2CdSn,62.0,20.0,0.35
mp-8641,W,283.0,-101.0,0.7
mp-864661,ZnCuPd2,146.0,52.0,0.34
mp-864684,Hf2MoIr,191.0,81.0,0.32
mp-864904,HoCdAg2,77.0,1.0,0.49
mp-864906,MgSnIr2,178.0,6.0,0.48
mp-864955,Mn2CrCo,154.0,97.0,0.24
mp-864988,Mn2AlCr,194.0,102.0,0.28
mp-865032,Mn2PtRh,175.0,78.0,0.31
mp-865049,HfMgPd2,127.0,38.0,0.37
mp-865097,NaHgPd2,82.0,18.0,0.4
mp-865170,GaFeRh2,192.0,-57.0,0.67
mp-865174,HfCdRh2,163.0,58.0,0.34
mp-865342,Zn3Rh,128.0,46.0,0.34
mp-865432,Y2NiIr,106.0,40.0,0.33
mp-865459,Lu2AgRu,101.0,36.0,0.34
mp-865496,VIr3,320.0,186.0,0.26
mp-865563,LuZnPd2,105.0,11.0,0.45
mp-865743,Ga2IrRh,194.0,58.0,0.36
mp-865759,YbHfRh2,137.0,42.0,0.36
mp-865919,MgAlAg2,78.0,23.0,0.36
mp-865930,TiZnCu2,129.0,43.0,0.35
mp-866051,HfFe2Sn,179.0,107.0,0.25
mp-866081,MgSc2Os,104.0,25.0,0.39
mp-866184,Ti3Pb,107.0,18.0,0.42
mp-866188,TlCdRh2,138.0,51.0,0.33
mp-866375,TiFe2Ge,215.0,127.0,0.25
mp-867134,SmCl2,42.0,16.0,0.33
mp-867197,LiGaNi2,118.0,-17.0,0.58
mp-867200,Pm,39.0,23.0,0.25
mp-867223,LiGa2Ni,87.0,26.0,0.36
mp-867229,RbSn3,43.0,17.0,0.32
mp-867241,Ac2GePd,58.0,17.0,0.37
mp-867253,LiZn2Ir,114.0,40.0,0.34
mp-867274,Be2CoIr,218.0,111.0,0.28
mp-867327,Hf2TcRu,194.0,91.0,0.3
mp-867779,Ta2CrFe,232.0,98.0,0.31
mp-867837,BeCrRu2,269.0,101.0,0.33
mp-867911,ScCdPd2,106.0,10.0,0.45
mp-88,Dy,39.0,24.0,0.24
mp-8804,Li6MoN4,83.0,67.0,0.18
mp-890,NdIr2,180.0,77.0,0.31
mp-933,YAs,75.0,51.0,0.22
mp-9382,SrZrN2,150.0,109.0,0.21
mp-9473,Ba(NiP)2,75.0,37.0,0.29
mp-9549,ScFeGe,101.0,53.0,0.28
mp-961692,TaInNi,180.0,-229.0,1.61
mp-962075,SrMgSn,5.0,10.0,-0.09
mp-969,YbAl2,55.0,41.0,0.2
mp-971700,ZnAuO3,100.0,2.0,0.49
mp-971739,ZnCuPt2,212.0,51.0,0.39
mp-972822,SiBO3,162.0,72.0,0.31
mp-972916,MgCu,69.0,36.0,0.28
mp-973022,ScRu3,181.0,65.0,0.34
mp-973133,ScCuPd2,171.0,111.0,0.23
mp-973174,NaAg3,47.0,16.0,0.35
mp-973265,K3Zr,0.0,16.0,-0.95
mp-973266,Lu3Al,55.0,31.0,0.26
mp-973396,KBeO3,112.0,-47.0,0.74
mp-973536,LuUO3,149.0,74.0,0.29
mp-973627,K3Sr,2.0,2.0,0.18
mp-973920,Lu2Ta2O5,178.0,78.0,0.31
mp-974517,NdErMg2,37.0,20.0,0.27
mp-974810,Rb3Ru,38.0,4.0,0.45
mp-974950,Rb3Li,25.0,2.0,0.46
mp-975284,RbIrO3,100.0,89.0,0.16
mp-975656,Pr2NiIr,152.0,27.0,0.42
mp-975868,Li3Al,26.0,18.0,0.22
mp-976,V6Si5,183.0,119.0,0.23
mp-976025,Li3Ga,21.0,30.0,0.01
mp-976414,Li3Zn,18.0,12.0,0.22
mp-976423,Nd3Pd,42.0,1.0,0.49
mp-976763,NiAsO3,122.0,55.0,0.3
mp-976806,NiAu3,146.0,22.0,0.43
mp-977358,Ho2AgIr,101.0,33.0,0.35
mp-977372,Pm2SnHg,65.0,19.0,0.37
mp-977434,Nb3Ru,201.0,94.0,0.3
mp-977562,NdCdAu2,80.0,-6.0,0.54
mp-978281,Mg3Ga,47.0,25.0,0.28
mp-978287,Mg3Mo,62.0,53.0,0.17
mp-978303,Mg3Re,115.0,44.0,0.33
mp-978493,SiSnO3,43.0,121.0,-0.23
mp-978495,SiB,126.0,-40.0,0.68
mp-978625,Sm2MgTl,48.0,22.0,0.3
mp-979429,YHoCd2,62.0,17.0,0.37
mp-979430,YLuTl2,56.0,18.0,0.36
mp-979963,Yb3Ti,21.0,14.0,0.22
mp-981375,HfMg3,67.0,37.0,0.27
mp-982008,Hg3F,35.0,0.0,0.5
mp-9828,YbPPt,92.0,39.0,0.31
mp-983229,Pm2ZnRh,76.0,24.0,0.36
mp-983425,Li2PmGe,54.0,27.0,0.29
mp-983587,Ac2NiGe,55.0,14.0,0.38
mp-984051,CsGeO3,25.0,84.0,-0.29
mp-984873,Al3Fe,125.0,53.0,0.31
mp-985296,Ag3Pd,99.0,32.0,0.35
mp-985586,Na3BrO,50.0,24.0,0.29
mp-989192,SnClF,36.0,37.0,0.12
mp-989542,Ba6Tl2NCl,21.0,10.0,0.29
mp-989583,Rb2LiInCl6,49.0,3.0,0.47
mp-9950,BaLiSi,26.0,17.0,0.23
mp-997006,AgPtO2,123.0,34.0,0.37
mp-997094,SrAuO2,97.0,41.0,0.32
mp-998,Al2Cu,99.0,40.0,0.32
mp-998197,RbCaCl3,21.0,12.0,0.27
mp-999069,Ti2AlFe,126.0,35.0,0.37
mp-999072,Ti2AlZn,96.0,16.0,0.42
mp-999307,OsN,317.0,171.0,0.27
mp-999498,N2,276.0,241.0,0.16
mp-9996,SiP2,12.0,10.0,0.17
mvc-13442,Cu2S,101.0,23.0,0.39
mvc-13972,AlBiO3,120.0,43.0,0.34
mvc-15475,AlAgO3,100.0,30.0,0.37
mp-10006,TlAgTe2,28.0,13.0,0.3
mp-1001835,LiB,69.0,35.0,0.28
mp-1002182,TcN,298.0,-1603.0,-2.89
mp-1002230,PuBi,54.0,4.0,0.46
mp-10038,Er3AlC,36.0,16.0,0.31
mp-10040,AlPt3C,168.0,-5.0,0.52
mp-1006878,BaO2,28.0,17.0,0.24
mp-1007666,HoAu,89.0,17.0,0.41
mp-1008277,CrCo2As,185.0,66.0,0.34
mp-1008631,VCoTe,120.0,58.0,0.29
mp-1008752,CeTe,9.0,20.0,-0.14
mp-1008798,ReN2,328.0,127.0,0.33
mp-1009496,OsN,271.0,-14.0,0.53
mp-1009593,CrCoTe,137.0,58.0,0.31
mp-1009823,BeB2,187.0,63.0,0.35
mp-1009837,TcC,308.0,-40.0,0.57
mp-10105,UTeAs,71.0,33.0,0.3
mp-1013546,Ca3Sb2,31.0,20.0,0.23
mp-1014462,Li2YAl,32.0,-11.0,0.69
mp-1016823,BaGeO3,124.0,102.0,0.18
mp-10173,Li,14.0,6.0,0.31
mp-1017543,ZrPd3,151.0,75.0,0.29
mp-1018009,Li2MgSi,51.0,40.0,0.19
mp-1018022,NbInS2,52.0,26.0,0.28
mp-1018040,MgSe,31.0,20.0,0.23
mp-1018061,FeH3,207.0,131.0,0.24
mp-1018121,TiPd2,140.0,129.0,0.15
mp-1019272,TaN2,254.0,149.0,0.26
mp-1020118,MgSiO3,90.0,67.0,0.2
mp-10225,NaVS2,59.0,52.0,0.16
mp-1025069,PrSn2,51.0,28.0,0.27
mp-1025229,TiGa5Co,84.0,46.0,0.27
mp-1025288,TbGa5Co,82.0,53.0,0.23
mp-1025312,Mn(NbS2)2,37.0,10.0,0.37
mp-1025322,V(CoSe2)2,90.0,54.0,0.25
mp-1025335,Lu(TiGa2)2,99.0,61.0,0.25
mp-1025425,Co3H,214.0,113.0,0.28
mp-1029336,KZnN,36.0,9.0,0.38