material_id,pretty_formula,K_VRH,G_VRH,poisson_ratio
mp-1409,TiNi3,192.0,97.0,0.28
mp-1514,UB2,210.0,215.0,0.12
mp-1523,ZrP2,127.0,80.0,0.24
mp-15254,Li3AlF6,48.0,29.0,0.25
mp-15608,Ba(MnAs)2,68.0,43.0,0.24
mp-15619,GaAs,56.0,41.0,0.21
mp-15639,HgRhF6,3.0,13.0,-0.4
mp-1604,Pt3O4,213.0,58.0,0.37
mp-16304,YPPt,127.0,49.0,0.33
mp-16314,TmSbPt,100.0,49.0,0.29
mp-16421,Zr2CuSb3,91.0,45.0,0.29
mp-16516,TbAl2Ni,83.0,54.0,0.23
mp-16719,Al12Tc,95.0,74.0,0.19
mp-1698,SrSn,47.0,25.0,0.28
mp-17092,ScSnPd,102.0,49.0,0.29
mp-17848,Nb3Si,184.0,74.0,0.32
mp-17856,Al7CoCu2,110.0,63.0,0.26
mp-1825,Cu2Sb,92.0,35.0,0.33
mp-18775,Fe3PO7,136.0,48.0,0.34
mp-1902,MnPd,138.0,10.0,0.46
mp-19062,NdCrO3,193.0,109.0,0.26
mp-19147,NiCO3,125.0,68.0,0.27
mp-1941,GaNi,153.0,42.0,0.37
mp-1943,GaSe,13.0,9.0,0.23
mp-19787,Sr(GeRu)2,76.0,51.0,0.22
mp-19845,TiPbO3,171.0,91.0,0.27
mp-1986,ZnO,127.0,40.0,0.36
mp-19991,SrIn4Pd,48.0,24.0,0.29
mp-2000,CuSe2,64.0,24.0,0.34
mp-20033,SnIr,155.0,55.0,0.34
mp-20257,AsPd3Pb2,88.0,28.0,0.36
mp-20350,DyCoC,136.0,57.0,0.32
mp-20363,LiGa2Pt,98.0,26.0,0.38
mp-20400,Ce(GePt)2,111.0,36.0,0.35
mp-20401,HfCuSi2,135.0,87.0,0.24
mp-20432,Fe2Ge,138.0,36.0,0.38
mp-20487,La3Ga,44.0,15.0,0.35
mp-2051,LaCu2,83.0,13.0,0.42
mp-20522,TmAgPb,68.0,31.0,0.3
mp-20812,InN,255.0,108.0,0.31
mp-20826,CuTe,15.0,9.0,0.25
mp-2088,CeAl2,76.0,53.0,0.22
mp-21007,SmSnPt,104.0,50.0,0.29
mp-21027,CaIn2Pt,67.0,28.0,0.32
mp-21043,RbPbF3,41.0,15.0,0.33
mp-21163,SiPt3,198.0,42.0,0.4
mp-21206,Yb3GaC,31.0,99.0,-0.28
mp-21405,InSe,11.0,7.0,0.23
mp-2143,USe,78.0,-37.0,0.78
mp-21477,RbIn4,21.0,25.0,0.08
mp-21910,Nd3AlN,32.0,9.0,0.37
mp-22036,ZrSbPd,128.0,36.0,0.37
mp-22179,YTiSi,89.0,49.0,0.27
mp-22229,TbInCu4,90.0,49.0,0.27
mp-22287,NbGeIr,224.0,93.0,0.32
mp-22626,OsF6,6.0,3.0,0.27
mp-22639,U(NiP)2,190.0,54.0,0.37
mp-2297,NdC2,100.0,35.0,0.34
mp-23051,NbSeI,42.0,-20.0,0.79
mp-23201,BaBi3,39.0,15.0,0.33
mp-23247,ZrBr3,5.0,4.0,0.2
mp-23280,AsCl3,1.0,1.0,0.28
mp-2337,HfCo2,156.0,74.0,0.3
mp-23486,RbNiCl3,18.0,5.0,0.37
mp-2351,TmPt3,178.0,75.0,0.31
mp-2355,MoN,195.0,-105.0,0.83
mp-23714,SrH2,37.0,24.0,0.23
mp-23850,NaH2N,9.0,5.0,0.26
mp-241,CdF2,97.0,28.0,0.37
mp-24147,AcH2,55.0,30.0,0.27
mp-2478,NbSi2,175.0,140.0,0.18
mp-2481,Mg2Cu,58.0,27.0,0.3
mp-2488,SiOs,211.0,79.0,0.33
mp-2499,BaSi,34.0,20.0,0.25
mp-2582,TiSi2,143.0,111.0,0.19
mp-27367,SeOF2,7.0,5.0,0.24
mp-27475,WSCl4,1.0,1.0,0.27
mp-27682,NaSnS2,42.0,20.0,0.29
mp-2773,BeCo,195.0,118.0,0.25
mp-27904,FeSbS,112.0,97.0,0.16
mp-27972,AcBr3,24.0,13.0,0.28
mp-27989,CBrN,4.0,2.0,0.27
mp-28013,MnI2,8.0,4.0,0.27
mp-2811,MoN,327.0,196.0,0.25
mp-2816,Nd2Tl,44.0,17.0,0.33
mp-28497,Cs2CrCl4,21.0,11.0,0.27
mp-29175,Ca2AuN,59.0,31.0,0.27
mp-29419,Hf(Te2Cl3)2,7.0,2.0,0.39
mp-29761,UCO5,21.0,25.0,0.07
mp-29862,SnBr2,6.0,11.0,-0.08
mp-29896,Y2B3C2,149.0,65.0,0.31
mp-3031,BaSi2O5,56.0,33.0,0.25
mp-3033,RbTaO3,69.0,27.0,0.33
mp-30336,Al4W,117.0,77.0,0.23
mp-3034,MgAl2Cu,78.0,48.0,0.24
mp-3048,U2SeN2,126.0,70.0,0.27
mp-30488,CdHg2,28.0,5.0,0.41
mp-30594,Cu4Pd,146.0,49.0,0.35
mp-30686,Zr2Ga3,111.0,67.0,0.25
mp-30731,HoSnPd2,110.0,27.0,0.39
mp-3078,CdSiAs2,59.0,31.0,0.28
mp-30821,LiAl2Rh,119.0,57.0,0.29
mp-30865,TmRh2,157.0,61.0,0.33
mp-31120,DyScO3,165.0,82.0,0.29
mp-31468,LiCaN,70.0,40.0,0.26
mp-3148,Dy(SiPt)2,131.0,11.0,0.46
mp-3223,ThB2Ru3,217.0,90.0,0.32
mp-3277,BAsO4,46.0,41.0,0.16
mp-3286,Ce(AlZn)2,81.0,47.0,0.26
mp-335,BaGa4,42.0,33.0,0.19
mp-33708,Mn(FeO2)2,162.0,63.0,0.33
mp-3467,SmB2Ru3,214.0,100.0,0.3
mp-3489,Nd(FeSi)2,125.0,80.0,0.24
mp-351,SiNi,164.0,82.0,0.29
mp-36216,Ag2S,24.0,9.0,0.34
mp-3623,MnAlCo2,192.0,104.0,0.27
mp-36791,LiNdS2,45.0,29.0,0.24
mp-38103,NaClO4,15.0,14.0,0.15
mp-3999,Y(SiPt)2,142.0,-259.0,2.82
mp-4014,Pr(CuSi)2,100.0,74.0,0.2
mp-4181,Pr2CuO4,129.0,58.0,0.3
mp-4255,Ba(CuS)2,66.0,29.0,0.31
mp-427,FeAs,163.0,81.0,0.29
mp-4321,MgSiO3,98.0,70.0,0.21
mp-4385,CdCO3,91.0,32.0,0.34
mp-4483,AgAsSe2,65.0,23.0,0.34
mp-4495,KLiTe,23.0,10.0,0.31
mp-4529,K2SO4,29.0,14.0,0.29
mp-481,ScPt3,200.0,90.0,0.3
mp-4842,Al2ZnS4,84.0,45.0,0.27
mp-4908,Y(CoGe)2,129.0,68.0,0.28
mp-492,TiN,259.0,180.0,0.22
mp-496,SrSi2,58.0,31.0,0.28
mp-4984,SiB2Mo5,271.0,138.0,0.28
mp-4989,CrNiAs,129.0,61.0,0.3
mp-510374,GdAs,38.0,47.0,0.06
mp-510380,Mn3CuN,160.0,108.0,0.22
mp-5215,NdNiGe2,84.0,49.0,0.25
mp-5292,Ca(SiNi)2,104.0,56.0,0.27
mp-540924,NbTeI3,6.0,1.0,0.43
mp-541047,ZrAlPd2,147.0,15.0,0.45
mp-542,SrHg,81.0,18.0,0.4
mp-542435,Li3ScN2,93.0,61.0,0.23
mp-545481,Ca2Cu(BrO)2,21.0,17.0,0.18
mp-546200,TlIO3,138.0,84.0,0.25
mp-546910,CaSnO3,19.0,-30.0,2.14
mp-550111,SmBi2BrO4,63.0,32.0,0.28
mp-552588,LiNbO3,142.0,91.0,0.24
mp-5528,Ni3(SnS)2,25.0,27.0,0.11
mp-553939,CaCO3,71.0,30.0,0.32
mp-554107,K2Na4Ge2O7,46.0,23.0,0.29
mp-555280,ZnS,69.0,33.0,0.3
mp-555718,SrNiF6,64.0,23.0,0.34
mp-5558,NaReO4,25.0,10.0,0.32
mp-556788,SiO2,42.0,37.0,0.16
mp-556856,BaCSNCl,25.0,12.0,0.3
mp-557142,Li2S,37.0,24.0,0.23
mp-557762,TiS,128.0,77.0,0.25
mp-558928,KrF2,42.0,2.0,0.48
mp-560340,La2Pd2O5,130.0,49.0,0.33
mp-564,TePd,98.0,20.0,0.4
mp-567276,TaV2,201.0,39.0,0.41
mp-567580,PaC,172.0,79.0,0.3
mp-567636,VFeSb,160.0,62.0,0.33
mp-567772,Na,7.0,21.0,-0.25
mp-568349,Cr(FeSe2)2,69.0,36.0,0.28
mp-568564,V3Cd,134.0,30.0,0.39
mp-568917,LaInAg2,96.0,34.0,0.34
mp-568920,CaAu5,99.0,27.0,0.38
mp-569396,BaLi2(MgGe)2,34.0,30.0,0.16
mp-569426,SrZn2,35.0,15.0,0.31
mp-570102,HoSiRu2C,176.0,77.0,0.31
mp-570886,BeI2,2.0,1.0,0.26
mp-570904,GaNi2,164.0,54.0,0.35
mp-570985,SiC,213.0,187.0,0.16
mp-571350,Ba(AsPd)2,73.0,30.0,0.32
mp-571440,K2CuBr3,14.0,8.0,0.26
mp-571555,InCl,9.0,5.0,0.28
mp-573658,Cs3BAs2,13.0,5.0,0.32
mp-580931,MgZn5,62.0,14.0,0.4
mp-5827,CaTiO3,175.0,104.0,0.25
mp-5938,SrCu2O3,94.0,44.0,0.3
mp-594,NiS,136.0,18.0,0.44
mp-627380,Mn(ReO4)2,14.0,10.0,0.2
mp-631317,NaIrPb,99.0,7.0,0.47
mp-631345,KZr2Nb,63.0,-20.0,0.67
mp-631428,TlCoW,153.0,-40.0,0.64
mp-631507,BeBiOs2,179.0,-17.0,0.55
mp-631539,BiBCl,36.0,-119.0,-16.47
mp-635966,MoO2,89.0,50.0,0.26
mp-637614,Zn3(InS3)2,53.0,20.0,0.33
mp-638729,Cs2ZrCl6,9.0,4.0,0.31
mp-644483,Ti3SnH,125.0,25.0,0.4
mp-647164,Cu12Sb4S13,59.0,13.0,0.4
mp-6494,K2Ca(CO3)2,54.0,24.0,0.31
mp-6624,Tb2Fe2Si2C,126.0,81.0,0.24
mp-672337,VGe3,85.0,11.0,0.44
mp-675766,K4CO6,21.0,8.0,0.32
mp-680580,Zn3As2,53.0,25.0,0.29
mp-684768,Sm2O3,123.0,57.0,0.3
mp-690490,TiVO4,225.0,114.0,0.28
mp-690525,MnCO3,99.0,44.0,0.31
mp-690544,Ga2FeO4,173.0,74.0,0.31
mp-6947,SiO2,272.0,203.0,0.2
mp-6996,SmB6,175.0,100.0,0.26
mp-708,LaAs,65.0,40.0,0.25
mp-7132,DySe,46.0,6.0,0.43
mp-7262,ZnAs2,51.0,29.0,0.26
mp-7400,NaAlGe,36.0,20.0,0.26
mp-753920,Tm2SeO2,126.0,66.0,0.28
mp-754125,NdO2,137.0,-4.0,0.51
mp-754157,AlInO3,184.0,88.0,0.29
mp-754185,Y2MgNi2,70.0,28.0,0.33
mp-754912,LiCuO2,105.0,31.0,0.37
mp-755115,CuReO4,45.0,25.0,0.27
mp-755480,KRbO,34.0,7.0,0.4
mp-756094,LiFeS2,90.0,30.0,0.35
mp-7595,GeF2,10.0,7.0,0.22
mp-76,Sr,12.0,7.0,0.27
mp-760,FeSe2,118.0,92.0,0.19
mp-760410,BePO4,20.0,20.0,0.12
mp-768310,LaBiO3,61.0,18.0,0.37
mp-7707,Zr(SiNi)2,171.0,82.0,0.29
mp-773525,LiFe3O4,87.0,33.0,0.33
mp-776331,Zr5N5O2,222.0,117.0,0.28
mp-809,ThCo5,131.0,41.0,0.36
mp-8101,WN2,310.0,63.0,0.4
mp-812,Ho2O3,145.0,65.0,0.3
mp-8122,ErCuSi,80.0,61.0,0.2
mp-818,SiRh,195.0,95.0,0.29
mp-8278,Ba(MgP)2,51.0,38.0,0.2
mp-8320,SmScSi,70.0,45.0,0.24
mp-8348,TlSbF6,8.0,6.0,0.2
mp-838,Cu3Sn,107.0,1.0,0.5
mp-8481,LiPrGe,41.0,37.0,0.15
mp-850,ScNi2,144.0,60.0,0.32
mp-8528,Tm(SiRh)2,160.0,87.0,0.27
mp-8582,Eu(PRh)2,132.0,70.0,0.27
mp-861643,CaLaMg2,30.0,16.0,0.27
mp-861733,LiTePd2,96.0,18.0,0.41
mp-861912,TaTiTc2,229.0,101.0,0.31
mp-861913,LiDy2Al,48.0,28.0,0.25
mp-861946,Er2MgAl,58.0,36.0,0.24
mp-861975,PaO3,251.0,57.0,0.39
mp-862316,LiBePt2,165.0,81.0,0.29
mp-862431,Sc2AgOs,124.0,46.0,0.34
mp-862847,PaB3,198.0,140.0,0.21
mp-862974,PmZnAu2,84.0,-23.0,0.65
mp-863684,Pm2GeAu,85.0,21.0,0.39
mp-863696,Pm2MgSi,55.0,22.0,0.32
mp-864599,TbSnAu2,88.0,19.0,0.4
mp-864893,NdAgHg2,64.0,16.0,0.38
mp-864943,MnBe2Ir,220.0,108.0,0.29
mp-864984,MnV3,209.0,54.0,0.38
mp-865021,Be2RuPt,223.0,104.0,0.3
mp-865076,NaCd2Pt,67.0,12.0,0.41
mp-865152,MgAlPd2,123.0,36.0,0.37
mp-865209,TmHfOs2,185.0,87.0,0.3
mp-865322,UTlO3,141.0,58.0,0.32
mp-865426,YbNdAg2,51.0,21.0,0.32
mp-865472,VSiTc2,257.0,102.0,0.32
mp-865486,VZnRu2,228.0,81.0,0.34
mp-865512,YMgCd2,52.0,25.0,0.3
mp-865538,Ti2RePd,192.0,73.0,0.33
mp-865587,Y2CuRh,89.0,36.0,0.32
mp-865660,Yb2AgPt,58.0,25.0,0.31
mp-865671,Y2ZnIn,61.0,32.0,0.27
mp-865708,LiSm2Ru,64.0,25.0,0.33
mp-865753,YbErPd2,78.0,22.0,0.37
mp-865768,Ti2MnOs,206.0,89.0,0.31
mp-865791,CrSiRu2,241.0,129.0,0.27
mp-865857,YbNbRu2,164.0,64.0,0.33
mp-865859,LaYbCd2,38.0,20.0,0.28
mp-865900,Ti3Tl,110.0,58.0,0.28
mp-865904,BeSiIr2,344.0,123.0,0.34
mp-865909,Yb2HgGe,33.0,34.0,0.12
mp-865987,Li2AgPd,56.0,15.0,0.38
mp-866139,TiBe2Ir,191.0,70.0,0.34
mp-866818,Ca2SnS4,43.0,30.0,0.21
mp-867117,Sc2CuPt,113.0,41.0,0.34
mp-867118,LaSnAu2,69.0,23.0,0.35
mp-867135,ScZnPd2,120.0,-15.0,0.57
mp-867170,LiGaPt2,153.0,99.0,0.23
mp-867172,SrMgTl2,32.0,10.0,0.35
mp-867267,LiHo2Pt,79.0,32.0,0.32
mp-867273,Be2CuIr,189.0,74.0,0.33
mp-867786,ScNbOs2,226.0,114.0,0.28
mp-867859,Sm2IrRu,126.0,41.0,0.35
mp-867901,ScTaTc2,193.0,73.0,0.33
mp-867918,ErPaRu2,152.0,20.0,0.44
mp-867922,ScAlRh2,163.0,84.0,0.28
mp-8682,Ca2SiO4,152.0,99.0,0.23
mp-8703,Na3SbSe4,20.0,6.0,0.37
mp-8861,Rb2MgF4,40.0,21.0,0.28
mp-8896,Sr2B4Rh5,148.0,79.0,0.27
mp-929,ZrCo2,164.0,76.0,0.3
mp-938,GeTe,31.0,24.0,0.19
mp-941221,Li(BH)5,16.0,9.0,0.28
mp-956,U3Si,147.0,7.0,0.48
mp-9565,Ca(MgSb)2,39.0,26.0,0.23
mp-9571,Ca(ZnAs)2,57.0,36.0,0.24
mp-9588,LiP,41.0,27.0,0.23
mp-961661,ZrSiPd,132.0,62.0,0.3
mp-961675,ScNiP,84.0,68.0,0.18
mp-961695,LaCoTe,72.0,29.0,0.32
mp-961712,TaTlPt,71.0,52.0,0.21
mp-971694,Ge3N2,99.0,53.0,0.27
mp-971827,Zn2CuPt,176.0,21.0,0.44
mp-971836,Zn2NiIr,207.0,58.0,0.37
mp-972352,YbMg,27.0,7.0,0.38
mp-972763,Si3Pt,115.0,-15.0,0.57
mp-972839,SiBO3,208.0,-52.0,0.64
mp-972945,HoErAg2,69.0,32.0,0.3
mp-9731,RbAuSe,10.0,6.0,0.24
mp-973217,SbSI,6.0,2.0,0.36
mp-973300,Lu3Ga,47.0,25.0,0.27
mp-973606,Nd2IrAu,86.0,26.0,0.36
mp-973681,LuRhO3,189.0,29.0,0.43
mp-974307,NdCuTeO,69.0,17.0,0.38
mp-974387,Nd2AgHg,55.0,14.0,0.38
mp-974616,Pt3Rh,223.0,76.0,0.35
mp-974938,Rb3Li,2.0,-8.0,-2.95
mp-974940,Rb3Mg,10.0,-0.0,0.52
mp-974973,HfZrZn2,111.0,53.0,0.29
mp-975364,RbCuO3,113.0,38.0,0.35
mp-975404,RbCa3,12.0,3.0,0.37
mp-975405,RbAuO3,51.0,51.0,0.13
mp-975822,PrNdZn2,52.0,26.0,0.29
mp-976061,PrGe3,17.0,22.0,0.04
mp-976133,NaAsO3,100.0,133.0,0.04
mp-976150,NaAl3,49.0,22.0,0.31
mp-976289,NaCd2Au,61.0,9.0,0.43
mp-976408,Li3Ag,17.0,6.0,0.33
mp-977415,HoCdAu2,87.0,24.0,0.37
mp-978278,Na(BH)6,10.0,6.0,0.27
mp-978489,SiPbO3,309.0,156.0,0.28
mp-978568,Si3MoPt2,184.0,91.0,0.29
mp-978929,SrAcZn2,33.0,23.0,0.21
mp-978953,SrAcTl2,183.0,13.0,0.46
mp-979014,SrAc3,22.0,13.0,0.25
mp-979269,Tl3Cd,132.0,-11.0,0.54
mp-979419,Dy3Y,43.0,26.0,0.25
mp-979989,Yb2AgPd,45.0,20.0,0.31
mp-980064,YbErHg2,53.0,26.0,0.29
mp-980199,YbDyHg2,52.0,25.0,0.29
mp-980941,Ti3N,125.0,68.0,0.27
mp-981252,YMg5,23.0,16.0,0.22
mp-9813,WS2,27.0,20.0,0.21
mp-981391,Hg3Ir,130.0,25.0,0.41
mp-982393,Pm2ZnAg,54.0,23.0,0.31
mp-982596,TbSc,45.0,28.0,0.25
mp-982666,LiAl2Tc,132.0,63.0,0.3
mp-983564,EuAsO3,115.0,72.0,0.24
mp-983603,ErZnAsO,77.0,35.0,0.3
mp-984358,Au3O,116.0,-0.0,0.5
mp-989388,Rb2SCl6F,32.0,40.0,0.06
mp-989405,Cs2LiInBr6,16.0,9.0,0.26
mp-989521,Cs2SCl6F,44.0,2.0,0.48
mp-989563,Rb2NaTlCl6,17.0,10.0,0.24
mp-989605,Cs2RbInF6,57.0,24.0,0.31
mp-9921,ZrS3,21.0,11.0,0.27
mp-9968,PrSi,77.0,50.0,0.23
mp-997084,RbAgO2,23.0,18.0,0.19
mp-9971,YGe,82.0,54.0,0.23
mp-997630,ZnO,167.0,-9.0,0.53
mp-998201,RbAgCl3,32.0,13.0,0.33
mp-998234,CsTlF3,44.0,17.0,0.33
mp-998890,Cu,146.0,19.0,0.44
mp-998947,TiRu3,246.0,93.0,0.33
mp-999027,Ti3Al,110.0,32.0,0.37
mp-999060,Ti2CoSi,140.0,61.0,0.31
mp-999188,NbNi3,208.0,24.0,0.44
mp-999197,AgN,156.0,8.0,0.48
mp-999263,RhN,284.0,84.0,0.37
mp-999308,OsC,382.0,112.0,0.37
mp-999336,NdPd,69.0,25.0,0.34
mp-999502,MoPt,275.0,135.0,0.29
mvc-13997,AlVO3,188.0,52.0,0.37
mvc-3978,Ca2Co2O5,110.0,46.0,0.32
mvc-5816,CoO2,143.0,78.0,0.27
mp-10054,ZrAs,116.0,59.0,0.28
mp-1005727,TmNp3,46.0,15.0,0.35
mp-1007770,TlAs,39.0,18.0,0.29
mp-1008284,Cr3Ni,218.0,200.0,0.15
mp-1008523,BC2N,347.0,397.0,0.09
mp-1008525,B2CN,320.0,188.0,0.25
mp-1008558,AuN,139.0,22.0,0.43
mp-1009735,ReC,411.0,234.0,0.26
mp-1009814,SmAs,71.0,146.0,-0.11
mp-1010071,CrCo,210.0,105.0,0.29
mp-1013704,Ca3BiSb,69.0,56.0,0.18
mp-1014246,ZrB,166.0,81.0,0.29
mp-1014252,Hf3ZnN,150.0,90.0,0.25
mp-1016848,SrIrO3,73.0,51.0,0.22
mp-1016853,CaVO3,159.0,74.0,0.3
mp-1017550,Be3N2,174.0,4.0,0.49
mp-1017556,CuNi3N,196.0,66.0,0.35
mp-10178,LiMgP,59.0,21.0,0.34
mp-1018028,TiS,141.0,101.0,0.21
mp-1018053,InCu,114.0,-5.0,0.52
mp-1018066,CrSnRh2,182.0,78.0,0.31
mp-1018629,YPd3C,151.0,17.0,0.45
mp-1018641,Tm3AlN,96.0,72.0,0.2
mp-1018659,CeO2,148.0,90.0,0.25
mp-1018720,HfVSi,152.0,67.0,0.31
mp-10192,LuP,91.0,65.0,0.21
mp-1019362,ThBiTe,66.0,28.0,0.31
mp-1021669,Ba2CuC(NO)2,66.0,12.0,0.41
mp-1024983,ErInNi4,147.0,56.0,0.33
mp-1025028,PrSiAg,81.0,28.0,0.34
mp-1025099,TbGaI,2.0,11.0,-0.42
mp-1025102,CeAl3Pt2,135.0,67.0,0.29
mp-1025213,InPPt5,234.0,61.0,0.38
mp-1025232,V2CrSe4,73.0,49.0,0.23
mp-1025264,U2W2C3,195.0,101.0,0.28
mp-1025324,SiSnPt5,185.0,71.0,0.33
mp-1025325,NpGa5Co,102.0,79.0,0.19
mp-1025329,TlSiPt5,170.0,54.0,0.36
mp-1025551,GaPt,156.0,52.0,0.35
mp-1029257,Zn2ReN3,127.0,47.0,0.34
mp-1029652,Y3Si6N11,143.0,94.0,0.23
mp-1029932,LiVN2,80.0,46.0,0.26
mp-10413,AgB(CN)4,33.0,4.0,0.44
mp-1046,NbSn2,96.0,49.0,0.28
mp-10666,Mn3AgN,141.0,78.0,0.27
mp-10706,ZrRu3C,257.0,157.0,0.25
mp-1090,FeSe,64.0,38.0,0.25
mp-1121,GaCo,176.0,67.0,0.33
mp-11267,BaHg2,24.0,5.0,0.4
mp-11369,ErHg2,63.0,29.0,0.3
mp-11397,Ga3Ni2,123.0,63.0,0.28
mp-11435,Er(TiGa2)2,97.0,58.0,0.25
mp-11507,Ni4Mo,223.0,91.0,0.32
mp-11959,CaSn2Rh,66.0,32.0,0.29
mp-12065,Ag3Pt,120.0,34.0,0.37
mp-12120,FeN,276.0,167.0,0.25
mp-12444,SrCuSF,75.0,39.0,0.28
mp-12546,TiCu3,140.0,51.0,0.34
mp-12561,TaAs2,134.0,96.0,0.21
mp-12635,TiAu4,144.0,39.0,0.38
mp-12965,ErNi4B,160.0,78.0,0.29
mp-13100,MoPt3,246.0,104.0,0.31
mp-13126,ZrN,200.0,76.0,0.33
mp-13308,HoGeAu,83.0,31.0,0.33
mp-1331,YCd2,56.0,32.0,0.26
mp-13365,SrZn2,35.0,19.0,0.27
mp-1340,Ga2Se3,28.0,19.0,0.22
mp-13444,LiSn,36.0,16.0,0.3
mp-13535,Tb2ZnNi2,96.0,32.0,0.35
mp-13610,ZnPbF6,21.0,20.0,0.15
mp-13683,HfGe2,113.0,71.0,0.24
mp-13910,Ba(AgGe)2,51.0,30.0,0.25
mp-13915,LiNi2Sn,108.0,28.0,0.38
mp-1399,AlAu,104.0,31.0,0.36
mp-1400,HfW2,223.0,94.0,0.32
mp-1424,GePd,123.0,45.0,0.34
mp-14338,Cs2Pt3Se4,17.0,6.0,0.34
mp-1471,Zr3Al,101.0,55.0,0.27
mp-1477,BaSi2,31.0,18.0,0.25
mp-1490,AlAu4,127.0,16.0,0.44
mp-15120,RbFe2Se3,16.0,7.0,0.31
mp-1515,ZrSi2,125.0,95.0,0.2
mp-15318,Rb2NaHoF6,29.0,18.0,0.25
mp-1545,Nb3Rh,204.0,89.0,0.31
mp-155,Gd,37.0,24.0,0.24
mp-15791,LiErS2,48.0,32.0,0.23
mp-15963,HfPRu,221.0,95.0,0.31
mp-15968,Sm(CoSi)2,145.0,91.0,0.24
mp-15987,Hf3(Cu2Si)2,148.0,80.0,0.27
mp-16035,Gd2TeO2,65.0,36.0,0.27
mp-1629,Th2Au,86.0,10.0,0.45
mp-16320,MnCu2Sb,95.0,-453.0,-3.58
mp-16329,ErSbPt,102.0,48.0,0.3
mp-16349,LiNi2Ge,133.0,37.0,0.37
mp-16528,Al6Re,113.0,70.0,0.24
mp-16753,LuCuPb,66.0,45.0,0.22
mp-168,Si,83.0,64.0,0.19
mp-1696,CdPd,110.0,42.0,0.33
mp-1749,CaAl4,57.0,28.0,0.29
mp-17659,Mg23Al30,56.0,19.0,0.35
mp-179,YZn,46.0,7.0,0.43
mp-1799,TaCo2,243.0,120.0,0.29
mp-1882,CaCu5,91.0,38.0,0.32
mp-18854,Sr2CrO4,91.0,70.0,0.19
mp-18895,KCoO2,68.0,34.0,0.29
mp-19059,Ca2FeWO6,121.0,25.0,0.4
mp-19183,Li2NiO2,88.0,38.0,0.31
mp-19219,Li3VO4,63.0,33.0,0.28
mp-19238,Co(PtO2)3,195.0,73.0,0.33
mp-19384,Ni(AsO3)2,148.0,81.0,0.27
mp-19448,Ni3TeO6,157.0,78.0,0.29
mp-1960,Li2O,78.0,70.0,0.16
mp-1971,HoCu,73.0,37.0,0.28
mp-1990,Mg3As2,50.0,27.0,0.27
mp-20175,Sc2InC,82.0,54.0,0.23
mp-20191,Si3Ru2,202.0,98.0,0.29
mp-20195,LaMnGe,67.0,28.0,0.31
mp-20311,FeSe,19.0,13.0,0.22
mp-20318,Mn2B,320.0,175.0,0.27
mp-20446,SnPt3C,241.0,4.0,0.49
mp-20452,Ba(MgPb)2,32.0,19.0,0.26
mp-20552,Cr2As,165.0,70.0,0.31
mp-20595,Eu(AlSi)2,61.0,40.0,0.23
mp-20621,NbInS2,58.0,27.0,0.3
mp-20708,In2Ni3S2,72.0,33.0,0.3
mp-2078,TiCu,130.0,62.0,0.3
mp-20866,GeRh,78.0,39.0,0.28
mp-20983,V2InC,154.0,103.0,0.23
mp-21,Ca,15.0,-34.0,4.92
mp-21030,Ti3Sn,117.0,88.0,0.2
mp-21236,BaPPt,80.0,31.0,0.33
mp-21376,Nd2CuO4,157.0,11.0,0.47
mp-2160,Sb2Se3,15.0,-0.0,0.51
mp-2180,HfSb2,84.0,49.0,0.26
mp-21888,Tm3SnC,42.0,8.0,0.41
mp-22003,NaN3,26.0,8.0,0.37
mp-2206,LuCo2,127.0,34.0,0.38
mp-2209,CeGa2,64.0,55.0,0.17
mp-2212,ScCo,121.0,59.0,0.29
mp-22377,ZrCoSb,73.0,-92.0,1.61
mp-22483,NaInTe2,28.0,13.0,0.3
mp-227,SmCu5,71.0,28.0,0.33
mp-22731,MnInNi2,133.0,30.0,0.39
mp-22749,Mn5C2,220.0,112.0,0.28
mp-22779,YbSnPt,81.0,34.0,0.31
mp-22859,HgI,10.0,4.0,0.32
mp-22896,LaCl3,32.0,16.0,0.28
mp-229,ZrRh3,211.0,113.0,0.27
mp-22909,ZnCl2,7.0,5.0,0.21
mp-23095,Ca3Cu2(ClO2)2,34.0,20.0,0.26
mp-23227,CuBr,29.0,10.0,0.34
mp-2330,Nb2Se3,69.0,42.0,0.25
mp-2358,SmAl2,74.0,49.0,0.23
mp-2361,Hf5Al3,111.0,48.0,0.31
mp-23713,CaH2,47.0,32.0,0.22
mp-23729,NaBeH3,63.0,48.0,0.2
mp-2403,YPt3,172.0,71.0,0.32
mp-24154,NbH2,178.0,81.0,0.3
mp-24504,H2,1.0,0.0,0.29
mp-2612,GeTe,39.0,37.0,0.14
mp-2618,DyAg2,74.0,30.0,0.32
mp-2688,HoGa3,66.0,37.0,0.26
mp-27175,InOF,119.0,59.0,0.29
mp-2728,MnIr,267.0,183.0,0.22
mp-2731,TiGa3,100.0,74.0,0.2
mp-27438,TlBiTe2,29.0,17.0,0.25
mp-27455,YCl3,6.0,2.0,0.33
mp-27462,AlPS4,8.0,4.0,0.29
mp-27468,U2BiN2,81.0,46.0,0.26
mp-27639,IBr,2.0,1.0,0.29
mp-27888,Zr3GeO8,196.0,55.0,0.37
mp-28448,DyCl3,12.0,6.0,0.29
mp-28592,Li7Br3O2,38.0,25.0,0.23
mp-29091,Ti(CuS)4,76.0,37.0,0.29
mp-29149,Li4NCl,36.0,30.0,0.17
mp-29154,Hf2CoP,166.0,86.0,0.28
mp-29243,Ba3SnO,34.0,25.0,0.2
mp-29259,Bi2PdO4,52.0,17.0,0.35
mp-29585,K4CdAs2,17.0,8.0,0.29
mp-29624,Mg2Al2Se5,15.0,9.0,0.23
mp-29754,SrLiN,54.0,28.0,0.28
mp-2990,TmAgSn,72.0,40.0,0.26
mp-30062,Cs2PtBr6,8.0,5.0,0.24
mp-30245,Mg3H4O5,48.0,32.0,0.23
mp-30343,InAg3,96.0,-148.0,2.09
mp-30381,Li2GaAu,43.0,33.0,0.19
mp-30459,ScNiBi,89.0,53.0,0.25
mp-30560,NbCoSn,134.0,-68.0,0.81
mp-30595,CuSnRh2,177.0,65.0,0.34
mp-30727,MgCdAg2,69.0,23.0,0.35
mp-30763,LiPd2Pb,91.0,14.0,0.43
mp-30765,LiPt7,220.0,83.0,0.33
mp-309,ThAg2,71.0,35.0,0.29
mp-30953,GaBr3,2.0,1.0,0.24
mp-31363,K2TaCl6,17.0,6.0,0.34
mp-314,Th3Ge2,85.0,24.0,0.37
mp-31510,NbCuTe2,67.0,37.0,0.27
mp-3216,Li2ZrN2,132.0,113.0,0.17
mp-3274,NiGePd,157.0,49.0,0.36
mp-32884,Ag2S,26.0,8.0,0.36
mp-33,Ru,308.0,193.0,0.24
mp-3323,SrZrO3,153.0,88.0,0.26
mp-3346,HoZrSb,75.0,37.0,0.29
mp-336,SmCo2,115.0,21.0,0.41
mp-33618,AgBiSe2,53.0,21.0,0.33
mp-3376,Sr2SnO4,136.0,69.0,0.28
mp-344,BN,179.0,116.0,0.23
mp-3486,KSnSb,28.0,10.0,0.35
mp-3504,NbNi2Sn,178.0,30.0,0.42
mp-3507,Lu(SiPd)2,129.0,48.0,0.33
mp-3602,YAl4Ni,92.0,59.0,0.24
mp-36209,TmCuSe2,66.0,29.0,0.31
mp-3682,KCuF3,57.0,25.0,0.31
mp-3710,HoBRh3,183.0,85.0,0.3
mp-38394,Ba(AlTe2)2,21.0,13.0,0.25
mp-3862,Ca(AlGe)2,57.0,39.0,0.22
mp-38725,NaBH4,19.0,10.0,0.28
mp-39,Tl,27.0,3.0,0.45
mp-3927,CaAsAu,57.0,26.0,0.3
mp-4054,YAl3Ni,93.0,60.0,0.24
mp-41283,BaLaTaMnO6,141.0,-210.0,1.99
mp-419,YbB6,155.0,90.0,0.26
mp-4226,LiCrS2,83.0,43.0,0.28
mp-423,GePd2,152.0,38.0,0.38
mp-4441,Ca(CuGe)2,78.0,38.0,0.29
mp-451,ZrB,158.0,80.0,0.28
mp-4613,Zr2SnC,127.0,80.0,0.24
mp-4628,ZrSiSe,85.0,61.0,0.21
mp-4711,Li2CuO2,89.0,44.0,0.29
mp-50,Ta,194.0,62.0,0.35
mp-504723,Ba2NiWO6,122.0,65.0,0.27
mp-505803,MnFeAs,110.0,39.0,0.34
mp-505824,Cs2PdC2,29.0,12.0,0.32
mp-5137,Zr2SbP,113.0,66.0,0.25
mp-5165,Th(SiRu)2,164.0,89.0,0.27
mp-5166,Ca(AsPd)2,87.0,27.0,0.36
mp-5193,SrZrS3,70.0,36.0,0.28
mp-5229,SrTiO3,173.0,110.0,0.24
mp-54,Co,212.0,105.0,0.29
mp-542915,TiAl3,107.0,89.0,0.18
mp-545788,Ba3ZnN2O,59.0,29.0,0.29
mp-546152,SmBi2ClO4,63.0,28.0,0.31
mp-5503,ErTaO4,158.0,72.0,0.3
mp-5518,GaAgSe2,50.0,18.0,0.34
mp-5519,HoGeAu,83.0,45.0,0.27
mp-551918,AlBiO3,128.0,71.0,0.27
mp-552857,TbBi2IO4,64.0,36.0,0.26
mp-554201,MoF3,92.0,36.0,0.33
mp-554451,BaFeF4,52.0,22.0,0.32
mp-555056,SbS2NCl6,6.0,3.0,0.32
mp-555403,K3WF6,34.0,3.0,0.45
mp-556093,CuMoF6,35.0,5.0,0.44
mp-556320,Cs2NaFeF6,80.0,21.0,0.38
mp-557018,Cs(CoS)2,48.0,34.0,0.21
mp-560236,MgF2,50.0,12.0,0.39
mp-560865,ZrCuF6,14.0,15.0,0.12
mp-562102,K2S2O7,16.0,8.0,0.29
mp-567885,C3N4,77.0,63.0,0.18