material_id,pretty_formula,K_VRH,G_VRH,poisson_ratio
mp-972324,Tc3As,231.0,53.0,0.39
mp-972406,YbSi2Ni,87.0,57.0,0.23
mp-972925,ScZn2Au,103.0,40.0,0.33
mp-973256,LaMgTl2,14.0,20.0,0.0
mp-973613,LiCeO3,195.0,23.0,0.44
mp-973646,Lu2ZnHg,72.0,26.0,0.34
mp-973689,Ho3Lu,43.0,29.0,0.22
mp-973824,LiHg3,33.0,17.0,0.27
mp-974452,Re3C,301.0,10.0,0.48
mp-974948,Rb3In,29.0,-10.0,0.69
mp-975043,Rb3Ca,8.0,3.0,0.34
mp-975055,Rb3Ac,6.0,7.0,0.07
mp-975299,RbInO3,55.0,5.0,0.45
mp-975346,RbMnO3,83.0,48.0,0.26
mp-975649,LiTm3,28.0,-20.0,0.98
mp-976254,Li3Mg,19.0,1.0,0.47
mp-976407,Li3Ac,15.0,20.0,0.03
mp-977546,Pm2ZnGa,56.0,29.0,0.28
mp-977550,ZrScOs2,191.0,83.0,0.31
mp-978261,MnBe2Co,129.0,94.0,0.21
mp-978283,Mg3In,22.0,25.0,0.1
mp-978501,Si3Se,97.0,41.0,0.32
mp-978652,SiHg3,15.0,12.0,0.18
mp-978969,TlAu3,453.0,7.0,0.49
mp-979026,SmTm3,42.0,26.0,0.24
mp-979436,YOsO3,203.0,-37.0,0.6
mp-981,SrF2,65.0,32.0,0.29
mp-981312,ZrCu2Hg,118.0,54.0,0.3
mp-981379,Zn3CdS4,54.0,28.0,0.28
mp-981935,Li5Mg,17.0,7.0,0.32
mp-982869,PmYAl2,63.0,34.0,0.27
mp-983594,Al3Ga,66.0,-25.0,0.71
mp-984357,CsKO3,106.0,35.0,0.35
mp-984554,BPbO3,100.0,-9.0,0.55
mp-984628,CaBO3,164.0,60.0,0.34
mp-989538,Cs2InBiF6,28.0,9.0,0.35
mp-989587,K2SBrCl6,17.0,-5.0,0.68
mp-996162,Nb2AlC,173.0,114.0,0.23
mp-998908,TiN,222.0,85.0,0.33
mp-999132,SmTlTe2,30.0,18.0,0.25
mp-999201,Sc2MnSi,73.0,19.0,0.38
mp-999264,ReN,294.0,138.0,0.3
mp-999298,Pd3Au,176.0,42.0,0.39
mp-999395,Nb3Fe,173.0,54.0,0.36
mvc-13960,FeF4,10.0,16.0,-0.01
mvc-14413,TeO3,33.0,3.0,0.46
mvc-14714,ZnMoF6,97.0,29.0,0.36
mvc-14941,MoO3,38.0,27.0,0.21
mvc-15,CrS2,46.0,21.0,0.3
mvc-3489,Y2Fe2O7,167.0,71.0,0.31
mp-10000,Hf2S,131.0,74.0,0.26
mp-1001788,ZrB6,179.0,41.0,0.39
mp-1005,FeP,212.0,133.0,0.24
mp-1007824,GaN,50.0,23.0,0.3
mp-1007974,CrNi3,193.0,99.0,0.28
mp-1008285,Cr3Fe,253.0,34.0,0.43
mp-1008617,YbAg2,54.0,18.0,0.35
mp-1008820,PdN2,219.0,57.0,0.38
mp-1008931,ErSb,64.0,-1.0,0.5
mp-1009006,LiCdAs,43.0,5.0,0.44
mp-1009134,MnFe,240.0,161.0,0.23
mp-1009459,NbC,275.0,26.0,0.45
mp-1009504,EuZnGe,12.0,14.0,0.09
mp-1009533,PdC,175.0,22.0,0.44
mp-1009652,RhC,280.0,-20.0,0.54
mp-1009757,Se,18.0,7.0,0.32
mp-1009827,BaSi2,18.0,-6.0,0.7
mp-1011860,Na2CoP2O7,42.0,25.0,0.25
mp-10132,UB2Os3,297.0,136.0,0.3
mp-1013525,VS2,22.0,14.0,0.24
mp-1013736,Ba3Bi2,18.0,10.0,0.27
mp-10140,Sc3TlB,74.0,54.0,0.21
mp-1014373,CrN2,102.0,20.0,0.41
mp-10159,K3Sb,14.0,7.0,0.29
mp-1017542,ZrOs3,282.0,110.0,0.33
mp-1017552,Bi2O3,117.0,30.0,0.38
mp-1018015,Ti2MnGe,114.0,24.0,0.4
mp-1018042,UBi,75.0,20.0,0.38
mp-1018068,CrFe2Si,241.0,-25.0,0.55
mp-1018104,Zr2Cd,78.0,28.0,0.34
mp-1018164,PtC,209.0,18.0,0.46
mp-1018940,PrSe2,70.0,28.0,0.32
mp-1019097,SiC2,161.0,59.0,0.34
mp-1019509,B2S2O9,29.0,25.0,0.16
mp-1021327,KLiICl,13.0,14.0,0.1
mp-10245,Hf3(CuSi)4,153.0,83.0,0.27
mp-1025056,ThSi2Ru3,183.0,92.0,0.28
mp-1025144,CeGaGe,67.0,38.0,0.26
mp-1025262,Sm2Fe2Si2C,128.0,72.0,0.26
mp-1025280,Sr2Cu(OF)2,78.0,44.0,0.26
mp-1025334,Cs2TmH4,16.0,11.0,0.23
mp-1025408,TmCoSi2,113.0,57.0,0.28
mp-1025503,Cr3Co,243.0,-71.0,0.66
mp-1025552,LuGa2Ni,89.0,57.0,0.24
mp-1029337,Zr2SeN2,147.0,75.0,0.28
mp-1029375,BaCN2,48.0,11.0,0.39
mp-1029536,MgZrN2,149.0,69.0,0.3
mp-1029655,Sr3WN3,57.0,30.0,0.27
mp-1029791,MgSnN2,120.0,61.0,0.28
mp-1029826,Li6OsN4,84.0,64.0,0.2
mp-103,Hf,108.0,56.0,0.28
mp-10326,Zn(ReO4)2,15.0,12.0,0.2
mp-1038814,MgCd,35.0,11.0,0.36
mp-1038961,CaMg,16.0,7.0,0.3
mp-1039447,CaZn,23.0,9.0,0.33
mp-105,Te,43.0,17.0,0.32
mp-1073,CaCd,31.0,15.0,0.29
mp-10746,Mg2Cu3Si,98.0,64.0,0.23
mp-10760,MgSe,59.0,41.0,0.22
mp-10810,TiAgF6,9.0,8.0,0.14
mp-1082,VIr3,320.0,215.0,0.23
mp-11169,Ba(PIr)2,99.0,50.0,0.29
mp-11175,LiZnPS4,30.0,16.0,0.28
mp-11178,SrCeN2,117.0,65.0,0.27
mp-11237,ScAg,82.0,32.0,0.33
mp-11249,LuAu,95.0,35.0,0.34
mp-11280,TiBe12,122.0,59.0,0.29
mp-1136,Na3As,22.0,14.0,0.24
mp-1139,Co3Mo,260.0,133.0,0.28
mp-11476,HoIr,139.0,52.0,0.34
mp-11526,TmNi5,141.0,71.0,0.28
mp-11560,TiSiRu,202.0,103.0,0.28
mp-1157,TaNi2,214.0,76.0,0.34
mp-11687,VTe2,26.0,17.0,0.23
mp-11696,As3W2,134.0,74.0,0.27
mp-11734,Sr2MgReO6,159.0,78.0,0.29
mp-11754,Sc6Te2Os,72.0,32.0,0.31
mp-11883,MgIr2,196.0,58.0,0.36
mp-11918,Ca(BeN)2,112.0,63.0,0.26
mp-12067,MnAl,153.0,-32.0,0.61
mp-12093,Ge,65.0,-6.0,0.55
mp-12335,MnCN2,96.0,33.0,0.35
mp-1246,Fe4C,154.0,-32.0,0.61
mp-1253,BaSe,36.0,21.0,0.25
mp-12651,MgPt,115.0,7.0,0.47
mp-12771,Se,15.0,-85.0,-2.79
mp-12906,Sr3CrN3,50.0,31.0,0.24
mp-12923,SrPIr,97.0,34.0,0.34
mp-13035,MoN,314.0,-482.0,2.07
mp-13097,NaZnAs,39.0,21.0,0.27
mp-134,Al,83.0,24.0,0.37
mp-13436,PrMgNi4,126.0,47.0,0.33
mp-13536,TbZnNi,74.0,33.0,0.31
mp-13649,Cs2AgF4,34.0,13.0,0.33
mp-1371,Sn3Pd,64.0,25.0,0.33
mp-13946,Rb2ZrF6,22.0,10.0,0.3
mp-14115,LiRhO2,121.0,48.0,0.32
mp-14209,LiYGe,55.0,47.0,0.17
mp-143,Tm,46.0,31.0,0.22
mp-14763,Ca3MnN3,88.0,51.0,0.26
mp-1487,AlNi,162.0,72.0,0.31
mp-15178,Lu4C7,126.0,75.0,0.25
mp-1541,BeSe,49.0,43.0,0.16
mp-15624,Sr2Sb,33.0,22.0,0.23
mp-15661,Sc4C3,112.0,66.0,0.25
mp-15694,PaAs,108.0,54.0,0.29
mp-15722,Fe2B4Mo,308.0,175.0,0.26
mp-1608,ZrHg3,82.0,12.0,0.43
mp-1623,ErS,107.0,38.0,0.34
mp-16271,Li2CdSb,38.0,14.0,0.34
mp-16376,HoSbPt,101.0,47.0,0.3
mp-1652,ZnPd,139.0,55.0,0.33
mp-1654,CeNi2,121.0,40.0,0.35
mp-16646,PrMgRh,67.0,26.0,0.33
mp-16745,ErAgPb,71.0,32.0,0.3
mp-16905,Ba2MnTe3,29.0,15.0,0.27
mp-1723,UAl3,89.0,64.0,0.21
mp-18345,La5Si4,58.0,28.0,0.29
mp-1848,Te2Ru,124.0,78.0,0.24
mp-18740,V2Cd2O7,85.0,26.0,0.36
mp-19025,LaMnO3,166.0,84.0,0.28
mp-191,YRh,109.0,42.0,0.33
mp-19282,Sr2ZnWO6,144.0,59.0,0.32
mp-1939,ErNi2,109.0,43.0,0.33
mp-19438,LiMnO4,40.0,23.0,0.26
mp-19717,TePb,40.0,24.0,0.25
mp-19824,Ca(MnGe)2,78.0,55.0,0.21
mp-19836,Tb3TlC,40.0,11.0,0.38
mp-19857,Ba(MnP)2,85.0,47.0,0.26
mp-19895,NiSb2,88.0,42.0,0.29
mp-19929,MgInNi2,104.0,41.0,0.33
mp-19948,CeBPd3,97.0,-57.0,0.86
mp-19973,LaCoGe3,97.0,53.0,0.27
mp-20059,ZrMnGe,99.0,70.0,0.21
mp-20067,Na5OsO6,65.0,38.0,0.26
mp-2011,UP,96.0,45.0,0.3
mp-20261,Mn(GaSe2)2,42.0,20.0,0.3
mp-20279,NbInSe2,44.0,20.0,0.31
mp-20325,Ti3InC,145.0,92.0,0.24
mp-2033,Ni3N,197.0,73.0,0.33
mp-20354,MgMnGe,80.0,49.0,0.24
mp-20489,SrPbO3,105.0,50.0,0.3
mp-20601,NdPb3,47.0,8.0,0.42
mp-2068,RhF3,54.0,34.0,0.24
mp-20965,GdCd2,45.0,27.0,0.25
mp-2098,CeOs2,198.0,13.0,0.47
mp-21075,HfC,236.0,180.0,0.2
mp-21140,CeSb,40.0,7.0,0.42
mp-21171,MnGaCo2,190.0,80.0,0.32
mp-21235,Mn2VGa,187.0,83.0,0.31
mp-2128,Sn4Pd,56.0,23.0,0.32
mp-21381,ThPb3,59.0,17.0,0.37
mp-21445,Ba3In2O5F2,84.0,35.0,0.32
mp-21447,Nb4CoP,197.0,98.0,0.29
mp-21476,Fe2N,244.0,89.0,0.34
mp-2157,Co3W,279.0,142.0,0.28
mp-21609,SrCuN,68.0,34.0,0.29
mp-2172,AlAs,70.0,39.0,0.26
mp-2192,BPt,262.0,47.0,0.42
mp-22221,MnCu2Sn,183.0,34.0,0.41
mp-22426,ScSiNi,132.0,72.0,0.27
mp-2243,NbS,180.0,96.0,0.27
mp-22478,FeGe,145.0,73.0,0.28
mp-22589,TiFeSn,70.0,32.0,0.3
mp-2265,TbCo2,118.0,26.0,0.4
mp-2271,NaPt2,124.0,68.0,0.27
mp-22792,MnTePd,84.0,20.0,0.39
mp-2285,Te2Ir,84.0,35.0,0.32
mp-22979,GaBiO3,163.0,89.0,0.27
mp-23029,Cs3Sb2I9,7.0,2.0,0.39
mp-23058,NdClO,67.0,33.0,0.29
mp-23154,Br,4.0,3.0,0.21
mp-23184,BCl3,1.0,0.0,0.31
mp-23211,PrCl3,34.0,17.0,0.28
mp-2331,B2Mo,295.0,225.0,0.2
mp-23856,LiHO,14.0,8.0,0.25
mp-24155,ZrH2,158.0,-57.0,0.7
mp-24192,ErH2,87.0,53.0,0.25
mp-2432,CaMg2,30.0,19.0,0.24
mp-24517,Rb2CaH4,17.0,13.0,0.2
mp-24659,UH3,107.0,58.0,0.27
mp-251,TaN,327.0,127.0,0.33
mp-2553,HfBe2,128.0,103.0,0.18
mp-2572,SrMg2,26.0,16.0,0.24
mp-2598,Ta5Sb4,107.0,60.0,0.26
mp-265,TaIr3,325.0,212.0,0.23
mp-2672,K2O2,32.0,15.0,0.29
mp-2682,Sb2Rh,104.0,58.0,0.26
mp-2713,ErIr,145.0,55.0,0.33
mp-27164,FeP4,138.0,112.0,0.18
mp-27335,NaAlSi,41.0,23.0,0.27
mp-27471,NbPS,136.0,73.0,0.27
mp-27478,Na3PaF8,40.0,20.0,0.28
mp-27679,LaBr,8.0,4.0,0.28
mp-2781,ScPd,114.0,38.0,0.35
mp-27882,Cs2GeCl6,8.0,5.0,0.26
mp-2852,C3N4,416.0,381.0,0.15
mp-28593,Li3BrO,36.0,37.0,0.12
mp-2863,CeCd3,69.0,27.0,0.33
mp-28665,NdSi2Ru,119.0,63.0,0.28
mp-28782,Na3PS4,24.0,10.0,0.31
mp-28895,Ba(P2Pd)2,88.0,34.0,0.33
mp-29476,Cu3SbSe3,51.0,18.0,0.34
mp-29520,LiAuI4,7.0,4.0,0.25
mp-29751,CsMgI3,8.0,2.0,0.38
mp-29889,Tl2PdCl4,14.0,6.0,0.31
mp-29964,La3(TaN3)2,167.0,87.0,0.28
mp-3000,Cr3GaN,236.0,113.0,0.29
mp-30315,Ca3BN3,81.0,33.0,0.32
mp-30371,Cd5Au3,73.0,22.0,0.37
mp-30494,ScCd3,61.0,27.0,0.31
mp-30801,NdZn5,66.0,38.0,0.26
mp-30805,SrNiSn3,56.0,26.0,0.3
mp-3081,BeAl2O4,214.0,146.0,0.22
mp-30886,YZn12,79.0,52.0,0.23
mp-3098,AlCuO2,182.0,77.0,0.31
mp-3107,Ga3PO7,150.0,60.0,0.32
mp-3108,Lu(SiRh)2,148.0,84.0,0.26
mp-31116,LaScO3,154.0,79.0,0.28
mp-31147,BaZnSi,44.0,31.0,0.21
mp-31153,CaGePt,90.0,36.0,0.32
mp-31235,BaNaBi,23.0,16.0,0.22
mp-31301,LiSn4Au3,62.0,19.0,0.36
mp-31368,KClO2,12.0,4.0,0.36
mp-31503,Mg9Sn5,43.0,25.0,0.25
mp-32662,WO3,150.0,73.0,0.29
mp-3307,BaSO4,46.0,19.0,0.32
mp-33581,Ba9Nb10O30,170.0,93.0,0.27
mp-3372,Rb2SO4,25.0,13.0,0.28
mp-34078,H3ClO,12.0,5.0,0.32
mp-341,PbF4,31.0,23.0,0.2
mp-34735,Ho2CdS4,65.0,31.0,0.29
mp-35082,BH6N,6.0,3.0,0.31
mp-35143,BaNbS3,48.0,13.0,0.38
mp-3539,NbGaNi2,192.0,32.0,0.42
mp-3587,Sc(SiNi)2,149.0,62.0,0.32
mp-36033,PrOF,122.0,56.0,0.3
mp-36480,La2CuO4,119.0,53.0,0.31
mp-3702,FeCuPt2,198.0,73.0,0.33
mp-3718,ThTeO,85.0,33.0,0.33
mp-3721,SrHfO3,159.0,96.0,0.25
mp-38035,SrCO3,63.0,22.0,0.34
mp-3822,SrCO3,60.0,30.0,0.29
mp-3944,ZrAlNi2,149.0,39.0,0.38
mp-4025,TmNiSb,81.0,60.0,0.2
mp-4076,VCoSb,141.0,56.0,0.33
mp-4157,Sr(NO3)2,32.0,12.0,0.34
mp-4158,Nd2CuO4,130.0,58.0,0.31
mp-416,Cr3Os,282.0,103.0,0.34
mp-4180,Ca2SiO4,96.0,48.0,0.29
mp-4276,NaSi2Pd3,106.0,45.0,0.31
mp-429,ZnNi,146.0,63.0,0.31
mp-4300,Yb2Si2O7,92.0,31.0,0.35
mp-4359,Sr2PdO3,96.0,55.0,0.26
mp-4466,Tb(SiNi)2,110.0,72.0,0.23
mp-4478,CaSiPt,84.0,20.0,0.39
mp-4519,KPrO2,67.0,40.0,0.25
mp-4652,MnRh2Pb,107.0,47.0,0.31
mp-4768,Eu(SiNi)2,104.0,55.0,0.27
mp-4893,Hf2SnC,138.0,86.0,0.24
mp-4969,TbCoSi2,117.0,61.0,0.28
mp-4992,ScCrC2,209.0,133.0,0.24
mp-505515,Sr(CuSb)2,62.0,22.0,0.34
mp-505517,BaNb4O6,185.0,109.0,0.25
mp-505527,Ti5Si4,142.0,95.0,0.23
mp-5399,Tb(FeSi)2,137.0,82.0,0.25
mp-540572,NCl3,2.0,1.0,0.36
mp-541449,CrGeTe3,14.0,9.0,0.22
mp-550566,EuBi2ClO4,64.0,23.0,0.34
mp-552008,DyBi2ClO4,69.0,31.0,0.3
mp-553248,CsLaNb2O7,85.0,48.0,0.26
mp-557057,NbO2,206.0,80.0,0.33
mp-5577,Ce(GeRh)2,133.0,66.0,0.29
mp-558059,LiMnF4,62.0,32.0,0.28
mp-559939,Ba(PO3)2,51.0,21.0,0.32
mp-56,Ba,8.0,4.0,0.29
mp-561428,NiF3,44.0,40.0,0.15
mp-561490,PdSeO4,20.0,10.0,0.29
mp-562809,GdBi2BrO4,57.0,32.0,0.26
mp-5632,DyAsO4,127.0,55.0,0.31
mp-5659,Ti3SiC2,184.0,139.0,0.2
mp-567456,CaGe2,44.0,38.0,0.17
mp-567809,AgI,5.0,1.0,0.36
mp-568055,Nd(PRu)2,120.0,87.0,0.21
mp-568066,Pr2CBr,62.0,37.0,0.25
mp-568172,Ca3N2,68.0,30.0,0.31
mp-568293,Ca3N2,72.0,40.0,0.27
mp-568555,SmSi2Rh3,166.0,99.0,0.25
mp-568592,ZrNCl,24.0,13.0,0.28
mp-568823,YbAu3,83.0,19.0,0.39
mp-569151,MnGaPt,122.0,38.0,0.36
mp-5692,TbRhO3,186.0,67.0,0.34
mp-569385,DyAl2Ni,96.0,55.0,0.26
mp-569451,Sb2Pd5,128.0,21.0,0.42
mp-569737,Tb(SiPt)2,145.0,18.0,0.44
mp-569753,TlCoCl3,19.0,2.0,0.45
mp-569858,UBi2,56.0,22.0,0.33
mp-570744,Si3As4,59.0,39.0,0.23
mp-570784,Hf2Al3C4,197.0,156.0,0.19
mp-570896,Tl2Pd,54.0,14.0,0.38
mp-571188,Pr3Sn,46.0,25.0,0.27
mp-571203,Sr(CoAs)2,71.0,33.0,0.3
mp-571339,Ba(CrAs)2,57.0,34.0,0.25
mp-572758,ReS2,28.0,20.0,0.21
mp-5756,Cu3PSe4,64.0,28.0,0.31
mp-582736,Eu(MgSb)2,39.0,26.0,0.22
mp-593,Al4Cu9,129.0,70.0,0.27
mp-613989,Pu,203.0,90.0,0.31
mp-631354,ReOsRu,255.0,39.0,0.43
mp-631394,CaZrPd,32.0,-97.0,-143.83
mp-631495,BaYSc,17.0,16.0,0.14
mp-632172,H2,42.0,0.0,0.5
mp-634381,V2Zn2O7,111.0,22.0,0.41
mp-643432,H3N,8.0,5.0,0.25
mp-643945,TiFeH2,186.0,74.0,0.32
mp-644278,Y2H2C,95.0,66.0,0.22
mp-672,CdS,53.0,18.0,0.35
mp-672233,N2,2.0,1.0,0.36
mp-672356,MnSbPt,105.0,-3.0,0.52
mp-673245,CuI,38.0,15.0,0.33
mp-675287,CsCuCl3,15.0,1.0,0.47
mp-675349,DyCuSe2,63.0,29.0,0.3
mp-675734,Li7B18O,128.0,90.0,0.21
mp-676241,FeCl3,2.0,1.0,0.29
mp-688785,Al2NiO4,136.0,57.0,0.32
mp-6930,SiO2,27.0,44.0,-0.03
mp-6938,ZnRh,173.0,72.0,0.32
mp-695,TiCo2,168.0,94.0,0.27
mp-6963,Ba(SbPd)2,63.0,22.0,0.34
mp-6986,Ta,194.0,125.0,0.23
mp-7250,Nb6Co7,213.0,95.0,0.31
mp-7434,NaCuTe,36.0,14.0,0.32
mp-7443,Nb2CrSe4,76.0,47.0,0.25
mp-7472,RbAuO2,28.0,12.0,0.31
mp-7523,Th2TeN2,85.0,38.0,0.3
mp-752467,NbO2F,101.0,53.0,0.28
mp-753495,Sb3O7F,166.0,107.0,0.24
mp-754149,GdOF,69.0,-8480.0,-1.04
mp-754154,CsHoO2,83.0,41.0,0.29
mp-754701,CaTiO3,135.0,59.0,0.31
mp-755264,TiO,237.0,171.0,0.21
mp-756297,ZnIn2O4,136.0,59.0,0.31
mp-758594,Li(Fe3P2)2,175.0,86.0,0.29
mp-761415,CuNi3O4,164.0,77.0,0.3
mp-768342,SrNb2O4,148.0,72.0,0.29
mp-7709,ZnF2,96.0,31.0,0.35
mp-773044,LiCuO2,41.0,16.0,0.33
mp-775907,Y2O3,128.0,63.0,0.29
mp-7771,Sr(CdAs)2,46.0,28.0,0.25
mp-7876,Ba(MgGe)2,43.0,33.0,0.19
mp-7915,ZrSiO,182.0,114.0,0.24
mp-7924,Li2Sn5,42.0,11.0,0.38
mp-7929,Rb2PtS2,32.0,17.0,0.28
mp-7939,NaNbSe2,61.0,38.0,0.24
mp-8041,Rb2S,15.0,7.0,0.29
mp-8042,ZrGeO4,202.0,85.0,0.32
mp-8085,Mg3P2,57.0,39.0,0.22
mp-8098,InGaO3,170.0,74.0,0.31
mp-8188,KScO2,98.0,62.0,0.24
mp-8215,LaYbS3,55.0,18.0,0.35
mp-8276,Sr(ZnP)2,63.0,43.0,0.22
mp-8354,LaF3,168.0,37.0,0.4
mp-8401,CsMgF3,64.0,36.0,0.26
mp-850251,Na2Ti9O19,124.0,58.0,0.3
mp-850275,Li3SbS4,11.0,6.0,0.26
mp-850916,LiCoOF2,88.0,46.0,0.28
mp-8583,Ba(PRh)2,88.0,44.0,0.29
mp-861481,Pr2AgRu,83.0,21.0,0.38
mp-861652,LiLuPt2,109.0,67.0,0.24
mp-861873,TaTlO3,221.0,104.0,0.3
mp-861933,LiTmHg2,51.0,-6.0,0.56
mp-861992,PaNi2Sb,144.0,30.0,0.4
mp-862365,Sc2OsPd,138.0,61.0,0.31
mp-862658,LiCu3,90.0,36.0,0.32
mp-862663,LaPbAu2,95.0,20.0,0.4
mp-862664,Rb2Zr2O5,82.0,39.0,0.3
mp-862695,Al2CoRu,188.0,111.0,0.25
mp-862714,Be3Ir,190.0,684.0,-0.32
mp-862723,ScTc2Mo,210.0,75.0,0.34
mp-862727,Pm2ZnPb,61.0,18.0,0.36
mp-862767,TbMgCd2,53.0,25.0,0.29
mp-862790,FeSiTc2,245.0,101.0,0.32
mp-862795,CaLaAg2,54.0,21.0,0.32
mp-862824,PaInPt2,127.0,19.0,0.43
mp-862837,PmAlAg2,75.0,13.0,0.42
mp-862993,ErMgSn,60.0,38.0,0.24
mp-8634,Mn,280.0,131.0,0.3
mp-864612,Nd2MgIn,41.0,23.0,0.27
mp-864657,HoI3,3.0,2.0,0.25
mp-864844,Zn2RhAu,144.0,3309.0,-0.83
mp-864933,Mg2AgRh,89.0,24.0,0.38
mp-864991,Ca2AgPb,46.0,-36.0,1.03
mp-865002,CaYRh2,99.0,36.0,0.34
mp-865043,MgInPd2,109.0,35.0,0.35
mp-865090,NaAcTl2,35.0,12.0,0.34
mp-865183,MgGaAg2,66.0,6.0,0.46
mp-865195,TmGaRh2,145.0,57.0,0.33
mp-865202,TmCdPt2,123.0,17.0,0.44
mp-865248,TmNbRu2,178.0,74.0,0.32
mp-865356,Tm2MgAl,57.0,37.0,0.23
mp-865490,V2CrFe,232.0,107.0,0.3
mp-865502,YAgHg2,99.0,14.0,0.43
mp-865585,VGeRu2,239.0,100.0,0.32
mp-865600,Y2IrPd,111.0,39.0,0.34
mp-865602,Y2MgAl,55.0,36.0,0.23
mp-865678,TiMn2V,192.0,82.0,0.31
mp-865789,YbInAg2,56.0,17.0,0.36
mp-865793,LiSc2Rh,85.0,29.0,0.35
mp-865896,YbPmAg2,53.0,22.0,0.32
mp-865918,Yb2CdSn,37.0,27.0,0.2
mp-865986,Li2CaGe,38.0,28.0,0.2
mp-867127,ScCdAg2,79.0,25.0,0.36
mp-867131,SmMgCd2,52.0,25.0,0.29
mp-867144,CaMgHg2,40.0,16.0,0.33
mp-867186,CeZn2Ag,74.0,27.0,0.33
mp-867207,Sr2HgPb,55.0,32.0,0.26
mp-867246,TbGa3,63.0,45.0,0.21
mp-867280,Be2IrPt,240.0,125.0,0.28
mp-867285,LiTb2Ir,84.0,34.0,0.32
mp-867313,LiTmPt2,105.0,42.0,0.32
mp-867349,Dy2MgTl,54.0,22.0,0.32
mp-867507,TaGaFe2,224.0,124.0,0.27
mp-867748,ScSnRu2,171.0,79.0,0.3
mp-867788,TaGaOs2,273.0,126.0,0.3
mp-867822,LiYAu2,50.0,7.0,0.43
mp-867840,BeFeRh2,210.0,89.0,0.31
mp-867850,ScMnRh2,151.0,62.0,0.32
mp-8724,K2TeO3,28.0,15.0,0.27
mp-8868,Ba3NaN,11.0,3.0,0.37
mp-893,ZrSi,141.0,93.0,0.23
mp-902,BaZn,21.0,15.0,0.21
mp-9125,Ca(SbO3)2,105.0,49.0,0.3
mp-9295,TaCu3Te4,29.0,20.0,0.22
mp-9312,PrNiC2,138.0,84.0,0.25
mp-9351,LuGeAu,107.0,42.0,0.33
mp-9391,TaNi2Te3,18.0,10.0,0.25
mp-9460,Zn3N2,130.0,57.0,0.31
mp-961708,NbInPt,62.0,4.0,0.47
mp-961716,VSnPt,137.0,19.0,0.43
mp-961720,ZrAsRh,111.0,-33.0,0.66
mp-962060,NaYSi,26.0,5.0,0.41
mp-972044,YbTh3,49.0,30.0,0.25
mp-972741,Si3P,89.0,-4.0,0.52
mp-973058,LiLu2Al,54.0,31.0,0.26
mp-973156,ScAsO3,106.0,37.0,0.34
mp-973232,NdTm3,40.0,24.0,0.25
mp-973528,K3Si,13.0,5.0,0.34
mp-974430,Re3Ir,371.0,206.0,0.27
mp-974943,HfZrTc2,141.0,67.0,0.29
mp-975053,Rb3Ba,5.0,115.0,-0.84
mp-975658,PrHo3,40.0,23.0,0.26
mp-976047,Li3Hg,30.0,-2.0,0.54
mp-976082,Mn2GaW,220.0,114.0,0.28
mp-976159,PrErIn2,56.0,22.0,0.33
mp-976181,NaBH4,13.0,12.0,0.14
mp-976272,LiCa3,14.0,16.0,0.09
mp-976283,LiYO3,239.0,-5.0,0.51
mp-976330,LiZr2Ir,146.0,35.0,0.39
mp-976412,Li3Zn,20.0,7.0,0.34
mp-976775,NaMgO3,51.0,9.0,0.41
mp-976976,MgPd5,139.0,43.0,0.36
mp-977200,Na3C,32.0,5.0,0.42
mp-977230,Li3Tc,36.0,12.0,0.35
mp-977374,LiLuPd2,81.0,8.0,0.45
mp-977418,LiMgAu2,80.0,14.0,0.42
mp-977568,ZrSnPd2,192.0,7.0,0.48
mp-977572,Hf2MnRh,167.0,78.0,0.3
mp-978282,Mg3Hg,22.0,8.0,0.34
mp-978285,Mg3Mn,46.0,25.0,0.27
mp-978514,SmTm3,41.0,25.0,0.24
mp-978515,SmYAl2,63.0,34.0,0.27
mp-978832,Sm3Pd,39.0,-2.0,0.53
mp-978995,TmMnRh2,152.0,46.0,0.36
mp-979258,Tm2CdHg,69.0,21.0,0.36
mp-979272,TePdO3,136.0,-7.0,0.53
mp-980392,TmScHg2,72.0,23.0,0.36
mp-980537,RbYbO3,43.0,12.0,0.37
mp-981382,MgHg5,25.0,6.0,0.38
mp-9819,RbAsF6,27.0,3.0,0.44
mp-982385,Np3S5,74.0,45.0,0.25
mp-982975,LiBeO3,103.0,5.0,0.48
mp-983566,Ca2AgGe,40.0,-32.0,1.05
mp-984551,AcTlHg2,47.0,11.0,0.39
mp-984796,BaTh3,37.0,24.0,0.24
mp-9872,K4BeP2,11.0,9.0,0.18
mp-989530,SrTcN3,99.0,46.0,0.3
mp-989535,Cs2AlInH6,111.0,14.0,0.44
mp-9947,SiC,213.0,187.0,0.16
mp-995196,CO3,191.0,-58.0,0.67
mp-9970,ScGe,89.0,57.0,0.24
mp-998344,CsAgBr3,26.0,10.0,0.32
mp-998986,Ti3Si,144.0,55.0,0.33
mp-999054,Ti2GaCo,125.0,51.0,0.32
mp-999076,Ti2InNi,185.0,57.0,0.36
mp-999200,Si,82.0,46.0,0.26
mp-999484,YTi,29.0,22.0,0.19
mvc-14629,Mg2MnN2,92.0,63.0,0.22
mvc-14645,YWO3,128.0,16.0,0.44
mvc-3556,YFeO3,147.0,62.0,0.32
mvc-3672,Ca3Fe2O7,125.0,59.0,0.3
mp-1002206,SiC,241.0,176.0,0.21
mp-1002221,ErH,61.0,38.0,0.24
mp-1007992,CrH,196.0,114.0,0.26
mp-1008650,CeSe,44.0,32.0,0.21
mp-1008702,Ti2In,49.0,18.0,0.33
mp-1008866,NaAgO,59.0,21.0,0.34
mp-1008881,MgNiH,131.0,51.0,0.33
mp-1009207,MnSb,55.0,-23.0,0.75
mp-1009218,MoC,246.0,13.0,0.47
mp-1009264,NbCo,154.0,55.0,0.34
mp-1013547,Ca3P2,40.0,27.0,0.23
mp-10141,SmB2,136.0,109.0,0.18
mp-1014219,HfZn,105.0,45.0,0.31
mp-1014227,Ti2ZnN,149.0,100.0,0.23
mp-1014265,Zr2N,173.0,88.0,0.28
mp-1014307,ZrC,209.0,120.0,0.26
mp-10163,NaAlTe2,22.0,5.0,0.4
mp-1016831,HgIrO3,176.0,34.0,0.41
mp-1016872,CaIrO3,174.0,21.0,0.44
mp-1016884,CaGeO3,157.0,117.0,0.2
mp-1017516,MgSiP2,76.0,-12.0,0.58
mp-1018029,CuPd,141.0,46.0,0.35
mp-1018133,LiHPd,85.0,38.0,0.31
mp-1018702,EuZnGe,45.0,26.0,0.26
mp-1018734,IrN,225.0,49.0,0.4
mp-1018895,PrFeSi,61.0,42.0,0.22
mp-1019541,BaCa3O4,83.0,56.0,0.23
mp-1022728,Cu3O2,110.0,37.0,0.35
mp-1025045,TiGaPd,121.0,45.0,0.33
mp-1025201,Rb2PdCl4,24.0,6.0,0.38
mp-1025223,Hf4Al3,123.0,86.0,0.22
mp-1025238,Tm(TiGa2)2,102.0,58.0,0.26
mp-1025360,Na2Ti2As2O,62.0,14.0,0.39
mp-1029251,LiRuN,105.0,58.0,0.27
mp-1029408,Mg2NbN3,119.0,50.0,0.32
mp-1029506,CaSiN2,113.0,49.0,0.31
mp-1029566,CsOsN2,111.0,15.0,0.44
mp-1029610,Ca3CoN3,79.0,45.0,0.26
mp-1029660,Ca4ZrN4,87.0,41.0,0.3
mp-1031,GdCd,39.0,19.0,0.29
mp-1039208,Ca2Zn,16.0,5.0,0.35
mp-1057,Al3Ni2,130.0,86.0,0.23
mp-10602,Sm3GaC,65.0,47.0,0.21
mp-1061,PrPt2,146.0,62.0,0.31
mp-10675,Ti3AlN,163.0,45.0,0.37
mp-10677,CaPAu,74.0,34.0,0.3
mp-1070,CdSe,44.0,15.0,0.35
mp-10764,HgS,47.0,37.0,0.19
mp-1100,YbC2,64.0,8.0,0.44
mp-11132,KPrTe4,24.0,14.0,0.26
mp-11222,Sm3Al,44.0,25.0,0.26
mp-11227,Al12W,92.0,57.0,0.24
mp-11230,Y2Al,55.0,30.0,0.27
mp-11286,CaHg,35.0,19.0,0.27
mp-11359,Ga2Cu,78.0,37.0,0.29
mp-1146,ThS2,90.0,34.0,0.33
mp-11470,Hg2Pt,83.0,27.0,0.36
mp-11567,ScZn12,81.0,48.0,0.25
mp-11573,TiTc,207.0,72.0,0.34
mp-11694,Cs2Pd3Se4,15.0,5.0,0.34
mp-11958,CaSn2Pd,60.0,23.0,0.33
mp-1208,ErAl2,82.0,61.0,0.2
mp-1209,RbAu5,63.0,22.0,0.34
mp-123,Nd,34.0,21.0,0.25
mp-12388,Er3Al3NiGe2,85.0,59.0,0.22
mp-12403,LiBF4,11.0,7.0,0.23
mp-126,Pt,247.0,49.0,0.41
mp-12712,Zr3Pd4,145.0,29.0,0.41
mp-1280,ErTe,63.0,18.0,0.37
mp-12953,TmAgTe2,49.0,18.0,0.33
mp-13150,BN,103.0,75.0,0.21
mp-13175,PtN,221.0,40.0,0.41
mp-13178,AlN,205.0,123.0,0.25
mp-13254,CeMgZn2,48.0,34.0,0.22
mp-1346,B6O,227.0,207.0,0.15
mp-13545,BaIrF6,44.0,13.0,0.36
mp-1367,Mg2Si,53.0,45.0,0.17
mp-137,Ge,53.0,42.0,0.18
mp-13914,LiCo2Ge,152.0,94.0,0.24
mp-13947,Rb2HfF6,22.0,10.0,0.3
mp-13967,Nb5(CuSi)4,179.0,98.0,0.27
mp-14090,TlCuSe2,47.0,18.0,0.33
mp-14112,PdF3,42.0,21.0,0.29
mp-14208,LiYSi,62.0,47.0,0.2
mp-14628,ZnSnO3,144.0,35.0,0.39