material_id,pretty_formula,K_VRH,G_VRH,poisson_ratio
mp-631398,TeOsCl2,88.0,317.0,-0.32
mp-631431,InHgW2,153.0,-112.0,0.98
mp-631508,LaReB,102.0,-132.0,1.63
mp-631509,ZrBeCd,73.0,-17.0,0.62
mp-632250,H2,0.0,0.0,0.44
mp-632442,Al4C3,141.0,89.0,0.24
mp-640266,Ca3Al2O6,92.0,42.0,0.3
mp-643754,HgH2NCl,35.0,11.0,0.36
mp-644264,Ca4Mg4Fe3H22,61.0,44.0,0.21
mp-649,FePt3,267.0,92.0,0.34
mp-650,Be5Pd,146.0,132.0,0.15
mp-6586,K2NaAlF6,52.0,28.0,0.28
mp-672371,Ni3Sb,165.0,49.0,0.36
mp-674,LaPd3,122.0,42.0,0.35
mp-675271,Na2CO5,12.0,4.0,0.34
mp-675926,LiBH4,6.0,4.0,0.26
mp-676512,Na3AlF6,50.0,27.0,0.27
mp-68,Sm,35.0,18.0,0.28
mp-684597,InSb,59.0,27.0,0.3
mp-685146,CdTe,35.0,13.0,0.33
mp-6870,KBe2BO3F2,51.0,36.0,0.21
mp-690789,K3ReH6,13.0,11.0,0.17
mp-6950,BaSb3,27.0,17.0,0.24
mp-6959,Ga2NiS4,20.0,12.0,0.25
mp-7032,HfMoP,208.0,121.0,0.26
mp-704645,CuO,146.0,25.0,0.42
mp-7064,Er2Si2O7,163.0,64.0,0.33
mp-728,Li2Pd,48.0,21.0,0.31
mp-7302,CrP4,124.0,100.0,0.18
mp-7359,BaAgAs,43.0,28.0,0.23
mp-7506,Cr5Si3,224.0,133.0,0.25
mp-754134,HfZrO4,204.0,96.0,0.3
mp-754515,BaMgGe,33.0,23.0,0.22
mp-754553,Zn3N2,132.0,57.0,0.31
mp-754631,NaCu2O3,71.0,-165.0,5.61
mp-755144,NaLiO,53.0,36.0,0.23
mp-755175,Al2O3,189.0,125.0,0.23
mp-755300,TiO,207.0,51.0,0.39
mp-755318,ScHO2,157.0,53.0,0.35
mp-755877,BaNdO3,78.0,45.0,0.26
mp-756132,Cu(SbO2)2,21.0,6.0,0.36
mp-7576,CrSi,187.0,116.0,0.24
mp-7615,Rb3TlF6,0.0,9.0,-0.85
mp-7618,Cs3YF6,29.0,14.0,0.29
mp-7644,LuAsO4,136.0,63.0,0.3
mp-765508,V3(O2F)2,109.0,51.0,0.3
mp-770690,Mn3TeO6,123.0,49.0,0.32
mp-774192,Li2VO3,107.0,71.0,0.23
mp-774873,NbS2,24.0,12.0,0.28
mp-776651,Mn3NiO4,36.0,71.0,-0.09
mp-7781,CaZrS3,69.0,37.0,0.27
mp-7801,CaGeN2,107.0,30.0,0.37
mp-7804,HfCo3B2,255.0,159.0,0.24
mp-7832,BW,342.0,196.0,0.26
mp-783905,NaV2O4,75.0,33.0,0.31
mp-7863,Rb2Sn2O3,24.0,18.0,0.2
mp-7870,GdO,102.0,38.0,0.33
mp-7976,RbGdO2,72.0,43.0,0.25
mp-8033,PuF3,116.0,32.0,0.37
mp-806,PuO,117.0,49.0,0.32
mp-811,BaPt5,148.0,63.0,0.31
mp-8159,TlCu4S3,46.0,16.0,0.35
mp-8200,AgP2,62.0,26.0,0.32
mp-8237,Ba(AsPd)2,55.0,28.0,0.29
mp-8262,K2P3,9.0,11.0,0.07
mp-8280,Ba(MgAs)2,45.0,33.0,0.21
mp-849060,VS2,10.0,8.0,0.18
mp-8577,Sc3GaC,100.0,85.0,0.17
mp-861640,Ti2AlRe,172.0,72.0,0.32
mp-862600,Be2PtRh,216.0,114.0,0.28
mp-862716,LiAg3,62.0,21.0,0.35
mp-862774,LiInPt2,130.0,87.0,0.23
mp-862813,PaPbAu2,49.0,17.0,0.34
mp-862964,PmSmMg2,36.0,23.0,0.24
mp-863686,Pm2HgGe,68.0,21.0,0.36
mp-863736,Ho2OsAu,114.0,42.0,0.33
mp-864645,YbSiPt2,129.0,46.0,0.34
mp-864650,Ta2OsW,272.0,133.0,0.29
mp-864903,MgTaRu2,197.0,87.0,0.31
mp-865066,HfInRh2,174.0,145.0,0.17
mp-865098,NaLaAu2,70.0,16.0,0.39
mp-865162,MgGeRh2,161.0,68.0,0.32
mp-865163,HfBeRh2,213.0,66.0,0.36
mp-865211,TmInRh2,135.0,52.0,0.33
mp-865215,TmHfRu2,157.0,73.0,0.3
mp-865499,V2TcOs,278.0,129.0,0.3
mp-865548,TiInCo2,159.0,68.0,0.31
mp-865712,Ti2MnNi,177.0,66.0,0.33
mp-865728,Ti2ReNi,192.0,79.0,0.32
mp-865798,GaCu3,127.0,47.0,0.34
mp-865888,TiSnRu2,202.0,108.0,0.27
mp-865912,LiZn2Rh,100.0,33.0,0.35
mp-865933,LiSiIr2,295.0,102.0,0.34
mp-865935,Li2MgSn,33.0,19.0,0.26
mp-865998,HfGaIr2,211.0,61.0,0.37
mp-866008,Dy2TlAg,64.0,19.0,0.37
mp-866108,HfZn3,103.0,-6.0,0.53
mp-866109,HoNbOs2,192.0,83.0,0.31
mp-866116,HoTaRu2,183.0,76.0,0.32
mp-866121,V3Os,246.0,107.0,0.31
mp-866168,TiInPd2,141.0,13.0,0.46
mp-866185,CeCdAu2,77.0,16.0,0.4
mp-866286,AcMg,33.0,20.0,0.25
mp-867143,SmGa3,61.0,38.0,0.24
mp-867158,SmCd3,57.0,23.0,0.32
mp-867187,ScInIr2,176.0,79.0,0.31
mp-867198,LiGaPd2,113.0,-102.0,1.14
mp-867206,LiCd2Pt,83.0,19.0,0.39
mp-867251,LiZn2Pt,103.0,27.0,0.38
mp-867262,ScTc3,214.0,91.0,0.31
mp-867263,ScCdHg2,67.0,16.0,0.39
mp-867290,TbTe,59.0,39.0,0.23
mp-867338,AcCdAg2,52.0,-14.0,0.65
mp-867835,BeSiRu2,223.0,123.0,0.27
mp-867876,SmTlAg2,59.0,15.0,0.38
mp-867917,CuGeRh2,199.0,67.0,0.35
mp-867921,Sm2ZnRu,82.0,25.0,0.36
mp-8873,LiGeBO4,74.0,62.0,0.17
mp-8996,Sc3RuC4,180.0,111.0,0.25
mp-924130,TiNiSn,122.0,68.0,0.27
mp-937760,C,117.0,87.0,0.2
mp-9459,Y4C5,101.0,52.0,0.28
mp-95,Sr,12.0,6.0,0.27
mp-961645,LiAlGe,26.0,-3.0,0.55
mp-9635,Ag2HgS2,46.0,11.0,0.38
mp-97,Pr,32.0,17.0,0.27
mp-972222,TaBeO3,208.0,112.0,0.27
mp-972456,Sm3V,40.0,22.0,0.27
mp-972641,SmHoIr2,128.0,1.0,0.5
mp-972876,Sc3Cd,63.0,34.0,0.27
mp-972914,Sc2AlCd,84.0,31.0,0.33
mp-973123,ScPdO3,136.0,23.0,0.42
mp-973267,KTcO3,112.0,92.0,0.18
mp-973271,K3Y,5.0,6.0,0.06
mp-973471,KReO3,143.0,112.0,0.19
mp-973894,LaNdZn2,50.0,24.0,0.29
mp-974060,LiDy3,32.0,-16.0,0.78
mp-974370,PtRh3,273.0,124.0,0.3
mp-974638,NdErZn2,58.0,20.0,0.35
mp-974842,KPtO3,158.0,39.0,0.39
mp-975368,LiCa2Mg,24.0,3.0,0.43
mp-975382,RbCaO3,87.0,-49.0,0.84
mp-975521,NdMgO3,136.0,-29.0,0.61
mp-975608,Li2TlPt,55.0,37.0,0.23
mp-975638,Pr3Hf,41.0,23.0,0.26
mp-975794,Li3Be,20.0,8.0,0.33
mp-975848,PrNdMg2,40.0,23.0,0.26
mp-976106,Hf3Tl,99.0,57.0,0.26
mp-976151,PrErMg2,36.0,21.0,0.26
mp-976262,LiMg,25.0,16.0,0.23
mp-976598,LiHf2Ir,106.0,61.0,0.26
mp-976968,NaPdO3,63.0,36.0,0.26
mp-977057,NpAs3,40.0,29.0,0.2
mp-9771,UTi2O6,151.0,58.0,0.33
mp-977218,Li2Mg,21.0,10.0,0.29
mp-977408,NbTlO3,177.0,93.0,0.28
mp-977424,Yb2ZnPb,40.0,29.0,0.21
mp-977549,Zr2OsRu,193.0,86.0,0.31
mp-978823,SmY3,42.0,22.0,0.28
mp-979435,YMg2Sc,46.0,26.0,0.26
mp-979465,SmCd3,56.0,21.0,0.34
mp-980044,YbPrCd2,45.0,21.0,0.3
mp-980429,Sm3Hg,44.0,18.0,0.32
mp-981366,Zn3N,105.0,-104.0,1.24
mp-982772,Pm2PtAu,90.0,23.0,0.38
mp-984553,BOsO3,287.0,-19.0,0.53
mp-984712,Cr3Se,182.0,80.0,0.31
mp-984722,BeGaO3,279.0,-71.0,0.64
mp-984754,PmHo3,45.0,25.0,0.26
mp-985283,Ag3Ge,72.0,12.0,0.42
mp-985806,Al2Cu,100.0,47.0,0.3
mp-990440,Na2ZrO3,82.0,51.0,0.24
mp-9967,NdSi,75.0,53.0,0.21
mp-996960,AgNO2,20.0,8.0,0.32
mp-996979,BaAgO2,68.0,28.0,0.32
mp-996983,AgAuO2,65.0,17.0,0.38
mp-998866,C,331.0,162.0,0.29
mp-998970,TiFe2Sb,217.0,44.0,0.41
mp-998987,Ti3Ge,122.0,37.0,0.36
mp-999088,ThCoC2,186.0,93.0,0.29
mp-999296,Pd3N,207.0,43.0,0.4
mp-999388,NbC,216.0,91.0,0.31
mvc-11155,AlNiO3,188.0,78.0,0.32
mvc-11198,YTiO3,186.0,45.0,0.39
mvc-14626,Mg(CoN)2,124.0,-43.0,0.7
mp-10015,SiOs,295.0,130.0,0.31
mp-1001581,LiC6,152.0,118.0,0.19
mp-1002083,CsKICl,3.0,4.0,-0.06
mp-10059,ZrCo3B2,244.0,130.0,0.27
mp-1006146,Eu(MgBi)2,33.0,22.0,0.23
mp-1007691,HfPt,179.0,56.0,0.36
mp-1007730,HfAl3,105.0,51.0,0.29
mp-1008727,Ti2Ge,62.0,-11.0,0.6
mp-1008918,CdN,143.0,48.0,0.35
mp-1008920,Mn2Ge,186.0,27.0,0.43
mp-1008929,FeN,195.0,89.0,0.3
mp-1009131,MnAs,42.0,-2.0,0.52
mp-1009752,ScSi,28.0,-31.0,1.35
mp-1013533,Ba3PN,39.0,27.0,0.22
mp-1013710,Ba3BiN,17.0,7.0,0.33
mp-10148,InSb,45.0,299.0,-0.53
mp-1016821,BaSiO3,178.0,122.0,0.22
mp-1016840,HgOsO3,167.0,58.0,0.35
mp-10175,KCdF3,43.0,24.0,0.26
mp-1017581,LaPd3C,125.0,-73.0,0.86
mp-1018057,HfBe,111.0,65.0,0.26
mp-1018075,FeSe,103.0,61.0,0.25
mp-1018643,YBPd3,192.0,14.0,0.46
mp-1018690,ErZnGa,73.0,59.0,0.18
mp-1018850,OsC2,362.0,203.0,0.26
mp-10189,LiTiTe2,38.0,25.0,0.23
mp-1019089,KMgAs,31.0,19.0,0.25
mp-1019359,ThSbSe,80.0,38.0,0.3
mp-1024963,TbCo2B2C,188.0,67.0,0.34
mp-10250,BaLiF3,69.0,42.0,0.25
mp-1025126,MgSi2,24.0,57.0,-0.17
mp-1025168,RuF6,19.0,3.0,0.43
mp-1025219,Ti2VTe4,44.0,31.0,0.21
mp-1025272,ZnPPt5,212.0,79.0,0.33
mp-1025390,LaSi2Ag,88.0,55.0,0.24
mp-1025524,Zr2TlC,44.0,81.0,-0.07
mp-1029309,Na2HfN2,38.0,22.0,0.26
mp-1029702,MgTiN2,162.0,77.0,0.29
mp-1029763,ZnSiN2,104.0,20.0,0.41
mp-1029779,ZnGeN2,149.0,74.0,0.29
mp-1029799,Sr4TiN4,73.0,33.0,0.3
mp-1029903,LiNbN2,112.0,58.0,0.28
mp-1038975,MgCd,38.0,-2.0,0.53
mp-1039073,Mg3Bi,40.0,13.0,0.35
mp-1039154,MgBi,48.0,-0.0,0.5
mp-10417,KSbO2,13.0,-4.0,0.65
mp-10445,Sc6FeTe2,68.0,32.0,0.29
mp-10455,YTiGe,84.0,53.0,0.24
mp-10457,HfSiPd,169.0,92.0,0.27
mp-10635,SnSb,50.0,23.0,0.3
mp-10676,Sc2AlSi2,102.0,74.0,0.21
mp-10729,Pd2O,155.0,2.0,0.49
mp-10749,SrCuSb,48.0,34.0,0.21
mp-1075,SmNi5,125.0,69.0,0.27
mp-10847,NiSbSe,90.0,47.0,0.28
mp-10892,MnAlPt,123.0,41.0,0.35
mp-10901,Al3Pd2,129.0,63.0,0.29
mp-110,Mg,36.0,2.0,0.47
mp-11243,ErAu,95.0,19.0,0.41
mp-11301,HoCd2,57.0,33.0,0.26
mp-11313,ZrCd3,77.0,28.0,0.34
mp-11364,TiCu,128.0,44.0,0.35
mp-11421,Gd,105.0,-21.0,0.61
mp-11471,ScHg,76.0,29.0,0.33
mp-11484,ZrIr,153.0,277.0,-0.07
mp-11539,SmAl3Pd2,105.0,55.0,0.28
mp-11722,PrGe2,60.0,13.0,0.4
mp-1176,TbTe,62.0,20.0,0.36
mp-11788,YbSmSe3,49.0,16.0,0.36
mp-1190,ZnSe,58.0,28.0,0.3
mp-12110,TaRu,245.0,109.0,0.31
mp-1222,CrSi2,196.0,156.0,0.18
mp-12265,SrCuF4,66.0,26.0,0.32
mp-12557,SrCuAs,56.0,41.0,0.21
mp-12559,MnAsPd2,130.0,12.0,0.45
mp-12674,MnAu,117.0,30.0,0.38
mp-12724,SrZn,24.0,9.0,0.34
mp-12741,MgPd2,115.0,42.0,0.34
mp-12798,Ni3Pt,206.0,92.0,0.31
mp-12972,Zr6Sb2Pt,119.0,59.0,0.29
mp-13099,YN,115.0,39.0,0.35
mp-13277,BaLiP,39.0,29.0,0.2
mp-1387,AlV3,159.0,10.0,0.47
mp-1391,Ag2F,74.0,23.0,0.36
mp-13944,Li3AlN2,104.0,101.0,0.13
mp-14,Se,9.0,6.0,0.2
mp-1405,TbGe,69.0,54.0,0.19
mp-14205,K3Cu3As2,24.0,11.0,0.3
mp-1439,TiO2,204.0,81.0,0.32
mp-1459,TaN,338.0,238.0,0.21
mp-15236,CrSbSe3,32.0,19.0,0.25
mp-15635,TiTl3F6,32.0,-1.0,0.52
mp-15642,SrMgSi,43.0,33.0,0.19
mp-15659,Sb2Pt3,135.0,27.0,0.41
mp-15660,Nb4C3,289.0,144.0,0.29
mp-15668,NaSe,21.0,12.0,0.26
mp-15697,Sr2As,30.0,24.0,0.18
mp-1592,Ag2Te,52.0,14.0,0.37
mp-1597,UO2,200.0,89.0,0.31
mp-15986,Hf(CuP)2,133.0,65.0,0.29
mp-16036,Tb2TeO2,82.0,38.0,0.3
mp-16366,Cu2Se,86.0,8.0,0.46
mp-1644,PrSb,59.0,3.0,0.47
mp-16529,Al6Ru,112.0,57.0,0.28
mp-16720,ThAl2,81.0,43.0,0.27
mp-16726,LiB,42.0,33.0,0.19
mp-16960,AlPt2,206.0,85.0,0.32
mp-16993,Er2SiO5,104.0,46.0,0.31
mp-1731,LaCo5,133.0,26.0,0.41
mp-17546,Cs2RuO4,18.0,7.0,0.32
mp-1769,SbPd,104.0,29.0,0.37
mp-18468,Mn5SiC,219.0,114.0,0.28
mp-1874,NbS2,9.0,-9.0,1.27
mp-18817,NiSeO4,69.0,42.0,0.25
mp-19035,BaFeO3,116.0,75.0,0.24
mp-1913,ErPt3,178.0,77.0,0.31
mp-1916,YbSb,33.0,-24.0,0.97
mp-1958,SrTe,39.0,23.0,0.25
mp-19886,ThSnPt,109.0,43.0,0.33
mp-1995,PrC2,92.0,29.0,0.36
mp-19968,CaIn2Cu,48.0,31.0,0.24
mp-20007,MnNiGe,144.0,60.0,0.32
mp-2008,FeAs2,134.0,110.0,0.18
mp-20146,Zr2Ni2Sn,133.0,60.0,0.3
mp-20268,TiGePd,150.0,69.0,0.3
mp-20284,PdF2,79.0,-25.0,0.68
mp-20343,NaAuO2,33.0,10.0,0.36
mp-20408,InGaTe2,22.0,13.0,0.26
mp-20418,SiRh2,220.0,73.0,0.35
mp-20463,CaPbF6,68.0,19.0,0.37
mp-20469,YbIn3,34.0,21.0,0.25
mp-20474,MnCu2GeS4,70.0,27.0,0.33
mp-20521,ScInPt2,140.0,6.0,0.48
mp-20750,Tb3SnC,39.0,9.0,0.39
mp-20895,NpAs,60.0,25.0,0.32
mp-20998,LiCaPb,13.0,-4.0,0.66
mp-21017,Y3PbC,76.0,58.0,0.19
mp-21026,Li2InPt,72.0,17.0,0.39
mp-21157,TmNiGe,95.0,59.0,0.24
mp-2120,HoAg2,75.0,31.0,0.32
mp-21251,UGa5Ni,91.0,58.0,0.24
mp-21343,CeB6,175.0,121.0,0.22
mp-21413,RbMnP,47.0,26.0,0.27
mp-21844,UTl3,47.0,37.0,0.19
mp-2201,PbSe,47.0,27.0,0.26
mp-22488,Co2C,257.0,110.0,0.31
mp-22566,TlInS2,47.0,22.0,0.29
mp-22817,TaTe4,12.0,23.0,-0.1
mp-2283,ZrCo,131.0,44.0,0.35
mp-2286,Li2Se,34.0,27.0,0.19
mp-22883,PbI2,4.0,2.0,0.24
mp-22886,UBi,9.0,-46.0,-3.09
mp-22894,AgI,25.0,6.0,0.39
mp-22915,AgI,19.0,185.0,-0.65
mp-22917,CuBr,7.0,5.0,0.2
mp-22958,KBrO3,15.0,10.0,0.23
mp-22962,CsTiBr3,15.0,7.0,0.3
mp-23046,SrIF,44.0,17.0,0.33
mp-23155,Ar,1.0,0.0,0.34
mp-23202,InI,12.0,7.0,0.25
mp-23406,Cs2PtCl6,8.0,5.0,0.26
mp-23514,BiSI,7.0,2.0,0.38
mp-2354,Ti3Hg,119.0,68.0,0.26
mp-239,BaS3,33.0,19.0,0.26
mp-2413,Ce3Al,39.0,27.0,0.22
mp-2451,YAl3,72.0,50.0,0.22
mp-2516,YZn,60.0,29.0,0.29
mp-2558,SmMg,44.0,22.0,0.28
mp-2627,DyAs,76.0,52.0,0.22
mp-2644,CoSb,137.0,69.0,0.28
mp-2733,Al8Mo3,141.0,104.0,0.2
mp-27519,SeO3,5.0,3.0,0.24
mp-27546,CaClF,57.0,27.0,0.3
mp-27632,K2TcCl6,8.0,7.0,0.15
mp-27719,Al2CuO4,185.0,44.0,0.39
mp-28020,AlCuCl4,12.0,6.0,0.29
mp-28174,Pd(SCl3)2,4.0,2.0,0.22
mp-2825,ErPd3,134.0,45.0,0.35
mp-28302,K4CdP2,19.0,9.0,0.3
mp-28610,CsAgCl3,12.0,6.0,0.28
mp-29131,VSe,82.0,51.0,0.24
mp-2932,Y2Si4Mo3,156.0,98.0,0.24
mp-29364,Li5SbO5,97.0,65.0,0.23
mp-29403,GaCuI4,5.0,4.0,0.13
mp-29641,GeSb4Te7,21.0,15.0,0.22
mp-2997,ThB2C,181.0,125.0,0.22
mp-30053,NaCN,23.0,11.0,0.3
mp-30244,Mg2H2O3,51.0,33.0,0.24
mp-3038,Al2HgSe4,32.0,19.0,0.25
mp-3040,TbCo3B2,209.0,118.0,0.26
mp-30404,Li2SbAu,53.0,20.0,0.34
mp-30469,TlBi2,41.0,11.0,0.38
mp-30528,MnTlCl3,34.0,12.0,0.34
mp-30581,Hf2Cu,123.0,58.0,0.3
mp-30661,ScGaPd2,131.0,25.0,0.41
mp-30682,ZrGa,114.0,73.0,0.24
mp-30725,YHg2,64.0,29.0,0.3
mp-30773,MgNi2Sb,110.0,37.0,0.35
mp-30779,SmMg3,35.0,27.0,0.2
mp-30811,Ni4W,234.0,98.0,0.32
mp-30848,USnPt,110.0,37.0,0.35
mp-310,NpCo2,185.0,-41.0,0.62
mp-31055,Sc3InN,104.0,81.0,0.19
mp-31171,Zn2AgAu,102.0,26.0,0.38
mp-31443,Li2InIr,55.0,5.0,0.46
mp-32777,WO3,162.0,88.0,0.27
mp-3289,LaMgNi4,106.0,43.0,0.32
mp-333,HfFe2,162.0,82.0,0.28
mp-3398,Ho2Ni2Pb,68.0,28.0,0.32
mp-34857,KNO2,17.0,6.0,0.34
mp-36111,LiMgP,55.0,43.0,0.19
mp-36592,Nd5AgSe8,60.0,28.0,0.3
mp-3716,TbNiSb,58.0,54.0,0.14
mp-3732,Ti2CS,180.0,134.0,0.2
mp-3759,MgGeO3,164.0,93.0,0.26
mp-38818,HfNbB4,269.0,219.0,0.18
mp-4008,ZnGeAs2,61.0,37.0,0.24
mp-4079,Sc3AlC,102.0,83.0,0.18
mp-4088,La(FeSi)2,106.0,70.0,0.23
mp-4250,Tb(SiPd)2,124.0,53.0,0.31
mp-4262,BeAlB,141.0,131.0,0.15
mp-4374,UAsS,92.0,11.0,0.44
mp-4405,Rb3AuO,16.0,9.0,0.25
mp-4472,BMo2C,317.0,183.0,0.26
mp-4474,V4GaS8,74.0,47.0,0.24
mp-4636,ScCuO2,135.0,46.0,0.35
mp-4699,NaTaO3,130.0,97.0,0.2
mp-4770,Na2SO4,43.0,23.0,0.27
mp-4798,Sc(AlC)3,166.0,138.0,0.17
mp-4865,Er(NiGe)2,96.0,49.0,0.28
mp-4887,BaCeN2,98.0,42.0,0.31
mp-4889,Y(GeRh)2,144.0,59.0,0.32
mp-4930,TiAl2O5,183.0,94.0,0.28
mp-505212,Cs3AuO,7.0,2.0,0.38
mp-505244,FeCuSe2,28.0,14.0,0.29
mp-505319,PtF6,8.0,2.0,0.36
mp-505332,LaFeSi,38.0,24.0,0.25
mp-505554,Sc(FeSi)2,172.0,110.0,0.24
mp-5090,Ti2FeSe4,59.0,41.0,0.21
mp-510488,SmMnSbO,59.0,31.0,0.28
mp-5167,Sm(NiGe)2,109.0,46.0,0.31
mp-5342,GaAgS2,61.0,22.0,0.34
mp-5396,MnCo2Sb,150.0,73.0,0.29
mp-542757,EuClO,53.0,22.0,0.31
mp-542903,ZrPbO3,113.0,62.0,0.27
mp-542909,Mn,264.0,83.0,0.36
mp-545529,NdBi2ClO4,58.0,25.0,0.31
mp-546079,MgCO3,87.0,26.0,0.37
mp-546973,SrSnO3,144.0,89.0,0.24
mp-548469,BaZnSO,58.0,35.0,0.25
mp-549970,Ba2ZnReO6,130.0,50.0,0.33
mp-550437,GdTe2ClO5,54.0,21.0,0.32
mp-5508,Th(SiPd)2,551.0,54.0,0.45
mp-550820,SmZnPO,94.0,55.0,0.26
mp-551685,Pb2O,58.0,20.0,0.35
mp-552265,Bi2SeO2,88.0,20.0,0.39
mp-552934,Ba2CuBrO2,41.0,14.0,0.34
mp-5556,U(SiRh)2,162.0,85.0,0.28
mp-556264,KRb2CrF6,36.0,27.0,0.21
mp-556609,KSb(PS3)2,11.0,7.0,0.25
mp-557397,K2MnF6,10.0,16.0,-0.03
mp-558518,K(NiS)2,30.0,21.0,0.21
mp-558674,K2NaFeF6,99.0,30.0,0.36
mp-558747,TiTlPS5,10.0,4.0,0.31
mp-560963,Rb2NaMoF6,37.0,34.0,0.14
mp-560976,KNiF3,75.0,40.0,0.27
mp-561079,CdBiS2Br,29.0,16.0,0.26
mp-567210,TbInAu2,93.0,18.0,0.41
mp-567290,LaN,86.0,22.0,0.38
mp-567538,YbCu2,60.0,28.0,0.3
mp-567703,Fe3NiN,191.0,87.0,0.3
mp-567925,MoC,318.0,114.0,0.34
mp-568177,CaAlSiH,52.0,40.0,0.2
mp-568284,SrI2,13.0,7.0,0.27
mp-568424,CaAlAu,67.0,29.0,0.31
mp-568537,YbInAu2,67.0,21.0,0.36
mp-569484,Cs3Ti2Cl9,8.0,5.0,0.26
mp-569548,CsAuBr3,16.0,4.0,0.4
mp-569802,Si3Ir,109.0,-77.0,0.96
mp-569886,KIn9Ni2,40.0,19.0,0.3
mp-569974,Nd(NiP)2,128.0,82.0,0.24
mp-569989,Nb2C,228.0,117.0,0.28
mp-570091,Rb(CoSe)2,38.0,25.0,0.23
mp-570223,CsGeBr3,11.0,20.0,-0.08
mp-570259,MgCl2,10.0,6.0,0.26
mp-570286,BiSe,3.0,3.0,0.18
mp-570683,PrInAg2,71.0,21.0,0.36
mp-570684,ZrOs2,265.0,94.0,0.34
mp-570707,NdSe2,63.0,36.0,0.26
mp-570775,BaAu,32.0,13.0,0.32
mp-570930,Bi2Pb2Se5,15.0,11.0,0.22
mp-571,TiNi,160.0,27.0,0.42
mp-571035,OsCl4,7.0,2.0,0.39
mp-571053,Al5Mo,119.0,86.0,0.21
mp-571147,Hf(SiNi)2,174.0,76.0,0.31
mp-571163,MnSbRh2,163.0,65.0,0.32
mp-573755,CsTeAu,10.0,3.0,0.35
mp-574,Ta2Co,222.0,79.0,0.34
mp-579,CrC,208.0,108.0,0.28
mp-580357,Cu3Pd,146.0,47.0,0.36
mp-5839,TiPO4,100.0,63.0,0.24
mp-590,NiAs,134.0,46.0,0.34
mp-5962,NaMgAs,33.0,20.0,0.25
mp-5986,BaTiO3,104.0,69.0,0.23
mp-600124,MnNiSb,109.0,46.0,0.32
mp-605034,K2NiF6,16.0,10.0,0.24
mp-6065,Sr2GaSbO6,174.0,93.0,0.27
mp-6092,TbNi2B2C,186.0,74.0,0.33
mp-6094,Ca2MgSi2O7,85.0,33.0,0.33
mp-614006,B2O,24.0,-8.0,0.68
mp-615314,ScCoC2,201.0,103.0,0.28
mp-629397,FeNiN,219.0,84.0,0.33
mp-631274,KFeP,43.0,-36.0,1.08
mp-631329,KMoRu2,133.0,58.0,0.31
mp-631333,LiPdW2,158.0,-32.0,0.61
mp-631395,CaTaTc,63.0,-11.0,0.59
mp-631423,TaPbBr,128.0,-30.0,0.63
mp-631471,YScBe,38.0,-21.0,0.84
mp-631551,MnAlTc,170.0,-6.0,0.52
mp-631554,Na2TiAu,35.0,-93.0,12.73
mp-631557,Sn2BSe,48.0,-307.0,-2.32
mp-633538,B9C,195.0,119.0,0.25
mp-634965,NbO,143.0,73.0,0.28
mp-636056,KN3,8.0,31.0,-0.34
mp-638765,Al2O3,78.0,48.0,0.24
mp-64,Ce,42.0,34.0,0.18
mp-640889,Tm(CuTe)3,54.0,29.0,0.27
mp-641365,PbWO4,81.0,30.0,0.33
mp-643,ThO2,188.0,88.0,0.3
mp-644500,Zn7Mo,102.0,46.0,0.3
mp-646,PrCd,47.0,19.0,0.32
mp-646507,Hf2Ni2Sn,142.0,66.0,0.3
mp-6473,Ca5P3O12F,83.0,41.0,0.29
mp-6564,Sr2MgSi2O7,86.0,43.0,0.28
mp-66,C,436.0,520.0,0.07
mp-669692,NbPd3,196.0,79.0,0.32
mp-672289,Ge3N4,166.0,91.0,0.27
mp-675104,Na3YCl6,21.0,10.0,0.3
mp-676117,Li2CuGe,41.0,29.0,0.21
mp-684663,I,26.0,-15.0,0.86
mp-6972,YCuO2,132.0,32.0,0.39
mp-6988,FeN,267.0,60.0,0.39
mp-7070,Mn3PtN,173.0,77.0,0.31
mp-7086,RbFeSe2,16.0,6.0,0.33
mp-7093,HoAgGe,79.0,28.0,0.34
mp-7142,OsC,384.0,74.0,0.41
mp-7226,V3Ni,201.0,93.0,0.3
mp-7364,Ca(SiAu)2,93.0,35.0,0.33
mp-7440,NaP,28.0,13.0,0.3
mp-7524,NbPSe,129.0,76.0,0.25
mp-753059,TiOF,37.0,29.0,0.19
mp-753781,EuHfO3,205.0,107.0,0.28
mp-754009,ScBiO3,98.0,46.0,0.3
mp-754417,H2,14.0,9.0,0.25
mp-754434,Hf3N4,214.0,68.0,0.36
mp-754478,HfZrO4,205.0,97.0,0.3
mp-754741,ZrO2,109.0,50.0,0.3
mp-755352,Li2HfO3,106.0,68.0,0.24
mp-755568,GaBiO3,97.0,43.0,0.31
mp-756,TbAl2,77.0,57.0,0.2
mp-7621,KTcO4,4.0,10.0,-0.2
mp-771359,Cu2O3,160.0,56.0,0.34
mp-775910,ZrO2,188.0,97.0,0.28
mp-776911,MgO,115.0,48.0,0.32
mp-777422,DyHO2,100.0,56.0,0.26
mp-777463,Li2FeF6,37.0,19.0,0.28
mp-779689,H3N,8.0,5.0,0.26
mp-7812,GeO2,23.0,25.0,0.1
mp-7824,K2ReF6,30.0,16.0,0.27
mp-7848,AlPO4,26.0,25.0,0.13
mp-797,DyPd3,131.0,51.0,0.33
mp-7973,RbNdO2,68.0,40.0,0.25
mp-813,ScAl2,88.0,69.0,0.19
mp-8182,As3Rh,116.0,72.0,0.24
mp-8191,Cs2PtF6,20.0,9.0,0.3
mp-858,TmAl2,82.0,62.0,0.2
mp-861605,AcH3,68.0,30.0,0.31
mp-861658,LiMnPt2,114.0,49.0,0.31
mp-861958,Ti2MnBe,153.0,53.0,0.34
mp-862256,Cu2PdAu,142.0,-13.0,0.55
mp-862289,AcHg3,44.0,11.0,0.38
mp-862682,Ba2Ga2O5,100.0,52.0,0.28
mp-862814,PaSiTc2,206.0,40.0,0.41
mp-862838,PmAlCu2,100.0,18.0,0.42
mp-862870,LiTcO3,223.0,90.0,0.32
mp-862885,CaPmRh2,86.0,28.0,0.35
mp-862928,LiPmTl2,41.0,9.0,0.4
mp-862956,PmSnAu2,84.0,18.0,0.4
mp-863710,KAcTe2,37.0,19.0,0.29
mp-864674,Ho2AlZn,71.0,40.0,0.26
mp-864951,MnAlOs2,258.0,144.0,0.26
mp-864961,Be2PdPt,192.0,20.0,0.45
mp-864985,MnZnIr2,224.0,80.0,0.34
mp-865039,HfTc2Sn,155.0,32.0,0.4
mp-865108,NaSmHg2,43.0,15.0,0.35
mp-865160,MgGeIr2,184.0,80.0,0.31
mp-865185,Mg(BeAs)2,76.0,45.0,0.25
mp-865206,TmCdRh2,136.0,48.0,0.34
mp-865219,Dy2IrRu,126.0,54.0,0.31
mp-865229,Be2NiIr,216.0,114.0,0.27
mp-865361,Tm2MgOs,103.0,30.0,0.37
mp-865373,YCo,54.0,22.0,0.32
mp-865379,LuSnRu2,162.0,69.0,0.31
mp-865403,Tm2MgGe2,82.0,58.0,0.22
mp-865487,VZnRh2,201.0,27.0,0.44
mp-865517,YZnRh2,126.0,41.0,0.35
mp-865597,NdPbAu2,73.0,17.0,0.39
mp-865650,Ti2TcRu,206.0,94.0,0.3
mp-865677,ThSnPd2,120.0,0.0,0.5
mp-865710,LiSnAu2,40.0,-1.0,0.52
mp-865908,Yb2HgPb,39.0,29.0,0.2
mp-865960,CoRe3,338.0,161.0,0.29
mp-865982,TmCdPd2,102.0,24.0,0.39
mp-866020,YbSmHg2,46.0,24.0,0.28
mp-866024,Be2RhAu,153.0,35.0,0.4
mp-866114,HfTc2W,244.0,119.0,0.29
mp-866131,Lu2TlAg,65.0,20.0,0.36
mp-866162,YMgAg2,63.0,14.0,0.4
mp-866174,ThSnAu2,102.0,18.0,0.42
mp-866181,Li2NdIn,41.0,30.0,0.21
mp-866650,La2Si4CN6,56.0,69.0,0.06
mp-867193,Sr2BiAu,35.0,21.0,0.25
mp-867212,TcOs3,378.0,243.0,0.23
mp-867288,TbHg3,57.0,19.0,0.35
mp-8676,Tl(CuS)2,42.0,16.0,0.33
mp-87,Be,122.0,160.0,0.04
mp-8753,K4HgP2,17.0,9.0,0.28
mp-8758,SmRhC2,144.0,71.0,0.29
mp-8871,CsNa2BO3,47.0,22.0,0.3
mp-8911,CuAgS,46.0,15.0,0.35
mp-8983,CaSiPt,102.0,40.0,0.33
mp-9257,Yb(CdSb)2,41.0,21.0,0.28
mp-945184,YCuTe2,42.0,21.0,0.29
mp-9564,Ca(MgAs)2,50.0,36.0,0.21
mp-957,HgSe,78.0,6.0,0.46
mp-961652,ZrFeSb,143.0,69.0,0.29
mp-961662,ZrNiGe,169.0,-40.0,0.63
mp-961664,VSnPd,120.0,28.0,0.39
mp-961670,HfSiPt,125.0,11.0,0.46
mp-961685,NaCaAs,35.0,23.0,0.23
mp-961688,VGaPt,122.0,15.0,0.44
mp-961693,ZrInAu,112.0,46.0,0.32
mp-962064,NaYSn,4.0,1.0,0.39
mp-971669,FeSb3,82.0,44.0,0.27
mp-971683,C3N4,68.0,53.0,0.19
mp-971706,ZnBiO3,153.0,60.0,0.33
mp-971757,ZnHg3,30.0,1.0,0.49
mp-9718,Rb3BAs2,15.0,6.0,0.31
mp-971833,Tm3V,55.0,19.0,0.34
mp-972119,SrCaTl2,23.0,39.0,-0.05