material_id,pretty_formula,K_VRH,G_VRH,poisson_ratio
mp-989580,Cs2KNF6,11.0,23.0,-0.14
mp-9939,Hf2Ge,133.0,93.0,0.22
mp-9957,V2GeC,180.0,101.0,0.26
mp-997010,TlAgO2,88.0,19.0,0.4
mp-997030,CaAgO2,116.0,44.0,0.33
mp-9988,Nb2CS,193.0,97.0,0.28
mp-998861,Br,22.0,-21.0,1.21
mp-998903,TiN,258.0,72.0,0.37
mp-999052,Ti2MnAl,21.0,54.0,-0.19
mp-999083,Ti2MnSn,145.0,160.0,0.1
mp-999549,WN2,353.0,226.0,0.24
mvc-11732,YCoO3,170.0,89.0,0.28
mp-1001023,BeC2,83.0,45.0,0.27
mp-1001828,WN,280.0,-92.0,0.69
mp-1002124,HfC,163.0,32.0,0.41
mp-10039,Pr3AlC,61.0,37.0,0.25
mp-1007821,GaCo2Ni,189.0,58.0,0.36
mp-1008376,CeH3,71.0,19.0,0.38
mp-1008491,BeSiP2,71.0,-70.0,1.24
mp-1008610,AuN,172.0,31.0,0.42
mp-1008635,WC,249.0,11.0,0.48
mp-1008728,Ni,197.0,76.0,0.33
mp-1009220,NaH,13.0,5.0,0.32
mp-1009230,NdAs,73.0,-254.0,-10.28
mp-1009540,OsC,256.0,18.0,0.46
mp-1009748,ScC,132.0,-75.0,0.85
mp-1009756,Ca2Pb,40.0,17.0,0.32
mp-1009813,SiSn,59.0,38.0,0.23
mp-1012640,CrFeCoNi,174.0,104.0,0.25
mp-1013540,Ca3PN,36.0,21.0,0.25
mp-1016820,MgSnO3,66.0,66.0,0.13
mp-1016883,ZrZnO3,228.0,56.0,0.39
mp-1016900,CaOsO3,161.0,53.0,0.35
mp-1018054,HfPt3,231.0,114.0,0.29
mp-1018062,FeSnRh2,188.0,67.0,0.34
mp-1018080,CrCo2Bi,120.0,57.0,0.29
mp-1018119,VCoSn,201.0,-134.0,0.93
mp-1018627,ScBPt3,142.0,-24.0,0.59
mp-1018644,YBPt3,183.0,-20.0,0.56
mp-1018653,BaMgPb,18.0,24.0,0.04
mp-1018699,EuZnGe,47.0,37.0,0.19
mp-1018851,OsN2,247.0,2.0,0.5
mp-1019259,SrSnHg,14.0,26.0,-0.09
mp-1020,TaRh3,260.0,153.0,0.25
mp-1020019,Li2PNO2,89.0,60.0,0.22
mp-10201,Ge2Mo,155.0,135.0,0.16
mp-1021431,CsNaICl,12.0,6.0,0.29
mp-1024984,TbInPt4,163.0,57.0,0.34
mp-1025044,AlNi2,185.0,40.0,0.4
mp-1025075,TbB2Ir3,251.0,124.0,0.29
mp-1025191,ScGa5Ni,90.0,41.0,0.3
mp-1025261,MgPPd5,135.0,55.0,0.32
mp-1025273,Cs2YbH4,15.0,11.0,0.21
mp-1025286,Rb2ZnF4,49.0,17.0,0.35
mp-1025497,AlV2C,171.0,131.0,0.19
mp-1027164,TeMoWSeS2,18.0,13.0,0.22
mp-10275,Er3InC,38.0,10.0,0.37
mp-1029562,Li3InN2,86.0,58.0,0.22
mp-1029580,Sr4ZrN4,71.0,29.0,0.32
mp-1029776,Li2GeN2,85.0,39.0,0.3
mp-1029943,Ca3GaN3,80.0,51.0,0.23
mp-10525,NaLi2N,59.0,-18.0,0.67
mp-10645,TbSe,52.0,0.0,0.5
mp-10739,TiPRu,221.0,103.0,0.3
mp-10877,Ca(Al2Cu)4,93.0,63.0,0.22
mp-10885,AlCrNi2,162.0,35.0,0.4
mp-11192,TaSi2,184.0,142.0,0.19
mp-11202,Y6FeSb2,59.0,35.0,0.25
mp-11261,YAu,86.0,33.0,0.33
mp-11300,TiCdHg2,73.0,28.0,0.33
mp-11360,ScGaCu2,106.0,30.0,0.37
mp-11374,DyTl,56.0,18.0,0.35
mp-11461,HoHg2,62.0,29.0,0.3
mp-11467,NdHg,56.0,17.0,0.36
mp-1185,VRh3,251.0,157.0,0.24
mp-119,Se,74.0,138.0,-0.08
mp-1194,CdPt,137.0,48.0,0.34
mp-11974,TmSnRh,111.0,40.0,0.34
mp-12073,Ba(BIr)2,100.0,62.0,0.24
mp-12128,Li2MgIn,31.0,4.0,0.44
mp-12382,ErSi2Ni,119.0,65.0,0.27
mp-12411,Li2ZnGe,48.0,39.0,0.18
mp-12467,Ca5Sb3,36.0,26.0,0.22
mp-12533,La2Hf2O7,165.0,89.0,0.27
mp-1256,HoGa2,75.0,53.0,0.21
mp-12630,MgSeO4,59.0,40.0,0.23
mp-12766,Mg13Al14,49.0,-3.0,0.53
mp-12874,Si2Ru,163.0,-44.0,0.65
mp-12979,SnO2,260.0,109.0,0.32
mp-13031,MgSe,44.0,16.0,0.34
mp-13161,ZnO,157.0,-43.0,0.65
mp-1317,CoSb3,85.0,57.0,0.22
mp-1343,NdNi2,108.0,38.0,0.34
mp-13474,LiErGe,60.0,49.0,0.18
mp-13504,CeAl4Co,103.0,64.0,0.24
mp-13686,Nb5Si3,194.0,123.0,0.24
mp-1380,Zn3Ru,138.0,58.0,0.32
mp-13903,ZnSnF6,23.0,23.0,0.13
mp-156,La,23.0,15.0,0.24
mp-15679,CoAs,163.0,74.0,0.3
mp-15783,KSmS2,41.0,26.0,0.24
mp-15819,Mn3Al9Si,117.0,79.0,0.22
mp-15964,Hf3Sb,114.0,49.0,0.31
mp-1681,La3Sn,50.0,11.0,0.4
mp-1704,Tb2Tl,50.0,22.0,0.31
mp-17045,Hf3Rh5,194.0,67.0,0.35
mp-1709,U2Ti,130.0,119.0,0.15
mp-17695,Sc5Sn3,72.0,51.0,0.21
mp-17892,Ca2VN3,94.0,50.0,0.28
mp-1797,MnNi,150.0,44.0,0.37
mp-1868,VS,147.0,80.0,0.27
mp-18814,MnCO3,99.0,44.0,0.31
mp-18835,VPO4,106.0,66.0,0.24
mp-18852,Na2MoO4,50.0,27.0,0.27
mp-1894,WC,385.0,279.0,0.21
mp-19,Te,22.0,15.0,0.22
mp-19177,CrO2,179.0,107.0,0.25
mp-19260,Li2WO4,69.0,26.0,0.33
mp-19284,NiAgO2,124.0,36.0,0.37
mp-193,Zr2Cu,109.0,47.0,0.31
mp-19317,Yb(FeO2)2,146.0,50.0,0.35
mp-19400,Sr2NiWO6,188.0,71.0,0.33
mp-19424,TiCoO3,175.0,71.0,0.32
mp-1969,NbSb2,97.0,69.0,0.21
mp-19790,Rh(OF3)2,5.0,3.0,0.2
mp-1982,Al21Pt8,133.0,62.0,0.3
mp-19876,InNi,103.0,50.0,0.29
mp-20086,MnSn2,64.0,48.0,0.2
mp-20119,PtO2,164.0,18.0,0.45
mp-20174,Ni3Sn4,98.0,47.0,0.29
mp-20358,UInAu2,98.0,23.0,0.39
mp-20385,Nd3InC,65.0,43.0,0.23
mp-20491,LaInCu2,71.0,24.0,0.35
mp-20526,PbS,7.0,5.0,0.21
mp-20605,PbC2(SN)2,25.0,12.0,0.3
mp-20716,PbSeO3,35.0,3.0,0.45
mp-20744,ZrInNi2,139.0,51.0,0.34
mp-20745,Pb,40.0,10.0,0.39
mp-20757,MnAlGe,114.0,64.0,0.26
mp-20922,Dy3GaC,42.0,18.0,0.31
mp-2097,SnO,32.0,20.0,0.24
mp-21019,Cr2FeS4,99.0,24.0,0.39
mp-21139,Mn2SnS4,19.0,35.0,-0.06
mp-21255,FeGe,154.0,84.0,0.27
mp-2133,ZnO,130.0,41.0,0.36
mp-21399,CeMnGe,84.0,34.0,0.32
mp-21422,YCoC,143.0,60.0,0.32
mp-21443,Ce2Pd2Pb,67.0,17.0,0.39
mp-21509,LaMgGa,52.0,35.0,0.22
mp-2154,CeP,76.0,51.0,0.23
mp-21662,TiFeSi2,180.0,116.0,0.24
mp-2173,P2O5,38.0,32.0,0.17
mp-21863,Pd3(PbS)2,57.0,20.0,0.34
mp-22072,YbF3,83.0,119.0,0.02
mp-22227,ZrMnSi,146.0,83.0,0.26
mp-2280,CuSe2,65.0,26.0,0.32
mp-22872,SbCl3,2.0,1.0,0.24
mp-22877,VCl2,10.0,7.0,0.23
mp-23137,Ba2YBiO6,115.0,69.0,0.25
mp-23265,GdCl3,29.0,15.0,0.28
mp-23475,Rb2PbCl6,10.0,5.0,0.29
mp-23526,KClO4,17.0,8.0,0.31
mp-24,C,387.0,504.0,0.05
mp-24420,H2Se,62.0,-213.0,-11.06
mp-2460,Er2O3,152.0,68.0,0.3
mp-2489,UC,188.0,36.0,0.41
mp-2491,ErSe,82.0,24.0,0.37
mp-2524,NdGa2,68.0,55.0,0.18
mp-2552,TeO3,90.0,96.0,0.11
mp-2614,HfAl3,107.0,83.0,0.19
mp-2666,CrSb2,85.0,33.0,0.33
mp-27145,Ca5Bi3,32.0,21.0,0.24
mp-2715,CoAs2,132.0,89.0,0.22
mp-27214,CsSnBr3,20.0,8.0,0.31
mp-2730,HgTe,36.0,12.0,0.35
mp-2746,MoC,335.0,144.0,0.31
mp-27512,Cr2NiS4,112.0,60.0,0.27
mp-27544,Cs3Bi2Br9,9.0,4.0,0.29
mp-27691,K2PtBr6,10.0,6.0,0.26
mp-27731,HfH2,149.0,34.0,0.4
mp-27839,K2TiCl6,12.0,5.0,0.31
mp-27897,Ba(NO2)2,29.0,12.0,0.31
mp-28,Ce,37.0,36.0,0.13
mp-28017,Na8Ti5O14,74.0,42.0,0.26
mp-28110,Rb2PtI6,9.0,5.0,0.28
mp-28270,KCuS,17.0,6.0,0.35
mp-28460,Br2O,6.0,3.0,0.27
mp-28980,K3BiSe3,12.0,7.0,0.27
mp-29005,U(Cr3P2)2,145.0,92.0,0.24
mp-29133,OsCl2O,22.0,12.0,0.27
mp-29135,Zr6CoAs2,124.0,67.0,0.27
mp-29643,CuAsSe2,38.0,13.0,0.35
mp-29803,SiH,17.0,10.0,0.24
mp-30033,CoBr2,11.0,4.0,0.33
mp-30091,MgB9N,209.0,170.0,0.18
mp-30408,MgAu3,111.0,31.0,0.37
mp-30744,IrW,334.0,183.0,0.27
mp-30774,MgNi2Sn,114.0,45.0,0.33
mp-30852,TiPt8,242.0,86.0,0.34
mp-30866,Rh3W,283.0,132.0,0.3
mp-30885,YZn5,79.0,48.0,0.25
mp-31219,Si3W5,267.0,121.0,0.3
mp-31457,ZrSbRu,136.0,47.0,0.35
mp-31469,Hf5CuSn3,118.0,62.0,0.28
mp-318,SrIr2,226.0,33.0,0.43
mp-3264,Th(NiGe)2,126.0,37.0,0.37
mp-33032,La2O3,102.0,34.0,0.35
mp-3329,Tb(NiGe)2,121.0,47.0,0.33
mp-3340,TaAlCo2,203.0,98.0,0.29
mp-33551,LiFe5O8,159.0,64.0,0.32
mp-34081,NaYF4,64.0,35.0,0.27
mp-3448,KMgF3,64.0,42.0,0.23
mp-34579,Na3HfF7,40.0,15.0,0.33
mp-3717,LuBRh3,164.0,86.0,0.28
mp-4009,BaPdS2,40.0,14.0,0.34
mp-4065,Dy(SiIr)2,173.0,105.0,0.25
mp-409,NaS,26.0,12.0,0.29
mp-4109,Ba(AsRu)2,77.0,39.0,0.28
mp-4124,CaCN2,69.0,22.0,0.35
mp-4175,ZnSnP2,64.0,39.0,0.25
mp-4200,ScPO4,150.0,78.0,0.28
mp-422,BeS,80.0,58.0,0.21
mp-454,NaGa4,45.0,29.0,0.24
mp-457,CeBe13,111.0,118.0,0.11
mp-4590,Mg(GaO2)2,162.0,75.0,0.3
mp-4595,VFe2Si,246.0,44.0,0.42
mp-499,AgO,113.0,10.0,0.46
mp-505110,FeCuO2,144.0,50.0,0.34
mp-510456,Zr(MoO4)2,22.0,14.0,0.24
mp-5109,Y(NiGe)2,106.0,51.0,0.29
mp-530074,B4C,219.0,186.0,0.17
mp-5377,YTaO4,182.0,66.0,0.34
mp-5381,U2PN2,156.0,82.0,0.28
mp-540111,FePO4,12.0,17.0,0.01
mp-541785,GePdS3,6.0,4.0,0.22
mp-545999,AgSbO3,86.0,3.0,0.48
mp-5498,Ca(MnAs)2,60.0,34.0,0.26
mp-551675,Li3UO4,87.0,63.0,0.21
mp-5532,Sr2TiO4,127.0,75.0,0.25
mp-553310,CsCuO2,29.0,11.0,0.33
mp-554799,VF4,14.0,14.0,0.12
mp-555166,BaAg2SnS4,33.0,14.0,0.32
mp-555321,BaNiF4,59.0,27.0,0.3
mp-555483,SiO2,133.0,54.0,0.32
mp-555970,NaTl2MoF6,108.0,40.0,0.33
mp-556353,Rb2NaNiF6,41.0,26.0,0.24
mp-556546,K2NiF4,47.0,24.0,0.28
mp-556605,ZrO2,190.0,92.0,0.29
mp-5578,LuB2Ru3,223.0,108.0,0.29
mp-557938,HfVF6,75.0,33.0,0.31
mp-558579,TlHCO2,8.0,4.0,0.29
mp-559276,AlBPbO4,78.0,47.0,0.25
mp-560620,BaZr(PO4)2,72.0,39.0,0.27
mp-5618,Mg2As2O7,104.0,48.0,0.3
mp-567337,Li,14.0,7.0,0.28
mp-567695,UMn2,219.0,55.0,0.38
mp-567713,Nb3TeI7,12.0,8.0,0.22
mp-567750,ScRu2,190.0,49.0,0.38
mp-568,TiSb2,89.0,54.0,0.25
mp-568014,Nb3Bi,158.0,64.0,0.32
mp-568069,Ti2Bi,72.0,22.0,0.36
mp-568121,Mn4Si7,193.0,134.0,0.22
mp-568636,TiCr2,198.0,75.0,0.33
mp-568809,Ba5Al5Pb,29.0,17.0,0.25
mp-569054,La2Co3,75.0,14.0,0.41
mp-569610,CoI2,5.0,1.0,0.36
mp-569628,CaCdAu,53.0,19.0,0.34
mp-569895,EuCl3,22.0,9.0,0.32
mp-570172,HgIBr,0.0,5.0,-0.76
mp-570287,Ta5Si3,211.0,114.0,0.27
mp-570354,CuBr,28.0,11.0,0.33
mp-570377,Sn3As4,39.0,21.0,0.27
mp-570483,V5Si3,184.0,57.0,0.36
mp-571247,Al3Mo,136.0,97.0,0.21
mp-571292,ZnI2,20.0,-11.0,0.85
mp-571636,InCl,10.0,5.0,0.29
mp-5724,AlPO4,20.0,24.0,0.07
mp-5729,YAgSn,86.0,42.0,0.29
mp-5848,ErZrSb,72.0,36.0,0.28
mp-5881,CoSbS,116.0,79.0,0.22
mp-5983,Tm(CoGe)2,130.0,69.0,0.27
mp-603251,PdO,108.0,-94.0,1.12
mp-622209,Al3Ni,113.0,66.0,0.26
mp-624929,CdInGaS4,40.0,24.0,0.25
mp-629458,BC2N,362.0,409.0,0.09
mp-6304,Sr2GaSbO6,144.0,71.0,0.29
mp-631320,TcIrOs,244.0,33.0,0.44
mp-631338,LiZrSc,28.0,-57.0,3.7
mp-631429,ZrCrFe,89.0,47.0,0.28
mp-631462,BeTcSe,83.0,-11.0,0.57
mp-631532,BaBe2Te,30.0,-15.0,0.8
mp-631576,MoPt2Br,230.0,54.0,0.39
mp-631578,BeSbAs2,9.0,17.0,-0.1
mp-6326,LiAlSiO4,113.0,45.0,0.32
mp-636698,YHf2Pb,49.0,-124.0,8.27
mp-637576,Mn4N,69.0,-20.0,0.66
mp-637771,ZrInNi4,161.0,65.0,0.32
mp-639662,CrF5,8.0,4.0,0.26
mp-642855,Mg3Ge,23.0,3.0,0.45
mp-643101,Rb2H6Pt,14.0,7.0,0.28
mp-644504,NdMg2Ag,43.0,14.0,0.35
mp-654812,CdCO3,103.0,47.0,0.3
mp-662,NiSe,119.0,25.0,0.4
mp-669,ThAl2,87.0,58.0,0.23
mp-675025,SbRhO4,188.0,91.0,0.29
mp-6764,BaSi2(NO)2,95.0,-20.0,0.61
mp-676828,ZnCuAs,75.0,23.0,0.36
mp-677103,RbHF2,22.0,10.0,0.3
mp-684709,K3B17,96.0,77.0,0.18
mp-685097,HfO2,210.0,106.0,0.28
mp-685935,CdGeO3,59.0,136.0,-0.15
mp-6945,SiO2,16.0,41.0,-0.2
mp-695850,CdCl2,9.0,3.0,0.35
mp-696114,CoCl2,11.0,4.0,0.33
mp-697,SnO2,100.0,60.0,0.25
mp-6985,Ti,107.0,30.0,0.37
mp-7066,ScNiGe,124.0,63.0,0.28
mp-7089,KMgSb,23.0,14.0,0.24
mp-71,Yb,15.0,9.0,0.25
mp-7104,CsCaF3,117.0,43.0,0.34
mp-7149,Na2LiN,22.0,16.0,0.22
mp-7502,K2Sn2O3,75.0,38.0,0.28
mp-752602,BiBr3,4.0,2.0,0.31
mp-753181,SrCu2O3,92.0,43.0,0.3
mp-753197,HfTiO4,181.0,72.0,0.32
mp-753657,TiOF,188.0,96.0,0.28
mp-7540,Cu3P,125.0,3.0,0.49
mp-754246,TiSnO3,26.0,19.0,0.21
mp-754475,Tm2SeO2,103.0,27.0,0.38
mp-754538,HgPtO2,42.0,16.0,0.33
mp-754678,BaTaO3,166.0,89.0,0.27
mp-7558,TaGe2,144.0,102.0,0.21
mp-755974,Na2CuO2,66.0,24.0,0.34
mp-758835,Na(Cu3O4)2,119.0,36.0,0.36
mp-760400,Na5BiO5,54.0,37.0,0.22
mp-761568,Rb2CoO3,128.0,25.0,0.41
mp-764163,Li3FeO4,93.0,52.0,0.27
mp-773137,KCaBi,16.0,9.0,0.27
mp-774146,W(BrO)2,33.0,16.0,0.29
mp-775296,TiMnO4,165.0,67.0,0.32
mp-775761,AgClO3,32.0,7.0,0.39
mp-7770,Sr(ZnAs)2,54.0,33.0,0.24
mp-7798,MgGeN2,147.0,84.0,0.26
mp-7861,CrCuSe2,69.0,-17.0,0.64
mp-7885,AlAgS2,76.0,28.0,0.34
mp-79,Zn,67.0,37.0,0.27
mp-7904,CdP4,55.0,28.0,0.29
mp-7913,BeSiN2,207.0,173.0,0.17
mp-793,Ca5Si3,41.0,28.0,0.22
mp-7948,ReSi,246.0,93.0,0.33
mp-8020,LaTiO3,187.0,67.0,0.34
mp-8181,Li2CeN2,110.0,65.0,0.25
mp-8426,K2Se,16.0,8.0,0.28
mp-844,Ca3N2,68.0,34.0,0.29
mp-8468,Sr(SbPd)2,77.0,18.0,0.39
mp-8499,Ho2Cr2C3,167.0,72.0,0.31
mp-861662,CaZrRh2,120.0,40.0,0.35
mp-861875,LiHf2Re,136.0,48.0,0.34
mp-861940,Ca2CdSn,28.0,27.0,0.13
mp-862373,ScS2,64.0,7.0,0.44
mp-862377,LiBe2Ir,137.0,66.0,0.29
mp-862445,TaAlOs2,272.0,143.0,0.28
mp-862543,Sc2AlTc,108.0,42.0,0.33
mp-862623,ScSnRh2,154.0,161.0,0.11
mp-862662,LaMgZn2,48.0,29.0,0.25
mp-862673,LiY2Ru,72.0,29.0,0.32
mp-862797,RbAcTe2,276.0,10.0,0.48
mp-862865,PaZn3,78.0,5.0,0.47
mp-862879,PmBiAu2,75.0,0.0,0.5
mp-8635,Zr,90.0,30.0,0.35
mp-863671,Pm2CuRu,81.0,30.0,0.34
mp-863723,Ho2MgGe2,76.0,56.0,0.2
mp-864611,Nd2IrRh,104.0,21.0,0.4
mp-864618,BaHg2Pb,34.0,10.0,0.37
mp-864647,Hf2N,195.0,141.0,0.21
mp-864667,NdTlAu2,60.0,-6.0,0.55
mp-864743,Yb2TlCd,34.0,13.0,0.32
mp-864787,NpCdPt2,63.0,32.0,0.28
mp-864902,MgTlRh2,131.0,56.0,0.31
mp-864934,MgAg3,78.0,29.0,0.34
mp-864946,MnCuPd2,150.0,37.0,0.39
mp-864953,MnV2Cr,231.0,99.0,0.31
mp-864966,MnSiRu2,245.0,123.0,0.29
mp-864982,DyBr3,4.0,2.0,0.25
mp-865015,MnSiRh2,208.0,25.0,0.44
mp-865027,Mn3Ge,190.0,85.0,0.31
mp-865048,TiZnIr2,225.0,103.0,0.3
mp-865093,TiZnNi2,169.0,50.0,0.37
mp-865110,NaMgTl2,24.0,13.0,0.28
mp-865127,NaTl2Cd,51.0,-1.0,0.51
mp-865149,PaAlRu2,173.0,31.0,0.41
mp-865167,Ca2CdPb,61.0,14.0,0.39
mp-865254,TbYbHg2,50.0,24.0,0.3
mp-865281,Tm2AgPt,97.0,32.0,0.35
mp-865324,LuCl3,5.0,3.0,0.26
mp-865378,LuSnRh2,141.0,226.0,-0.02
mp-865505,Lu2InAg,70.0,25.0,0.34
mp-865586,VGaRu2,239.0,112.0,0.3
mp-865652,TiMn2Si,207.0,105.0,0.28
mp-865742,YbCdHg2,44.0,6.0,0.44
mp-865840,Ti2TcIr,226.0,116.0,0.28
mp-865965,Li2CaSi,36.0,28.0,0.19
mp-865990,Y3Al7Cu2,88.0,63.0,0.21
mp-866138,LuSbRu2,157.0,84.0,0.27
mp-866160,Y2AgIr,98.0,32.0,0.35
mp-866204,Pm2SiHg,65.0,21.0,0.35
mp-866220,CaNdZn2,50.0,26.0,0.28
mp-866291,AgBr,28.0,3.0,0.44
mp-866295,DyLuMg2,39.0,18.0,0.3
mp-867125,Al2RuPt,201.0,97.0,0.29
mp-867126,Rb,3.0,1.0,0.38
mp-867145,LiHo2Ga,55.0,31.0,0.27
mp-867281,Tc3Pt,283.0,175.0,0.24
mp-867326,Al2RuRh,180.0,115.0,0.24
mp-867330,Al2FeNi,168.0,95.0,0.26
mp-8677,ZrTiTe4,15.0,12.0,0.18
mp-867882,SmCdAu2,80.0,2.0,0.49
mp-867902,LiSiRh2,159.0,100.0,0.24
mp-867914,LaMgAg2,55.0,18.0,0.35
mp-8860,Na3As,23.0,11.0,0.29
mp-8891,K2Zr(BO3)2,74.0,37.0,0.29
mp-924129,ZrNiSn,152.0,73.0,0.29
mp-944,AlB2,185.0,117.0,0.24
mp-9453,Sr2ZnCu2(SO)2,69.0,40.0,0.26
mp-948,ZnTe,55.0,15.0,0.38
mp-9481,TcS2,26.0,18.0,0.22
mp-9561,VS2,20.0,16.0,0.18
mp-9575,LiBeSb,57.0,47.0,0.17
mp-961656,VFeTe,101.0,55.0,0.27
mp-961660,TiFeSe,140.0,74.0,0.28
mp-961684,LiCaAs,49.0,22.0,0.3
mp-961711,ZrSiPt,165.0,66.0,0.32
mp-961719,HfAsRh,111.0,-17.0,0.58
mp-9665,K3BAs2,16.0,7.0,0.32
mp-9716,TiBO3,179.0,74.0,0.32
mp-971673,BiS2,23.0,12.0,0.28
mp-971701,ZnAs3,101.0,-44.0,0.75
mp-971826,Tl3H,213.0,42.0,0.41
mp-971950,Zn3Sn,52.0,5.0,0.46
mp-971958,Tm3P,59.0,20.0,0.35
mp-972,MnSe,36.0,28.0,0.19
mp-972066,ZrAlO3,241.0,119.0,0.29
mp-972241,Ti2ReTc,192.0,77.0,0.32
mp-972623,SmHgAu2,85.0,48.0,0.26
mp-972640,SmDyZn2,55.0,26.0,0.3
mp-972866,Sc2PdAu,125.0,22.0,0.42
mp-973111,In,114.0,-8.0,0.54
mp-973149,Mn3Al,187.0,78.0,0.32
mp-973325,Li2MgGe,44.0,16.0,0.34
mp-973443,Hf2ReTc,130.0,71.0,0.27
mp-973450,Hg3C,63.0,-31.0,0.8
mp-973572,La2TlHg,73.0,32.0,0.31
mp-973626,Hg3Au,40.0,-11.0,0.64
mp-973792,Pa3Tl,85.0,-10.0,0.56
mp-973826,LiHoSn2,52.0,35.0,0.22
mp-973830,KErO3,65.0,-5.0,0.54
mp-973956,Lu2CdAg,68.0,21.0,0.36
mp-973957,La2ZnAg,52.0,16.0,0.36
mp-974416,Re3W,335.0,130.0,0.33
mp-974426,Re3Sn,261.0,-5.0,0.51
mp-975159,RbZnO3,100.0,-15.0,0.58
mp-975200,RbSrO3,34.0,-19.0,0.84
mp-975646,PrZnSbO,61.0,20.0,0.35
mp-975652,PrTe2,52.0,23.0,0.31
mp-975834,MoRu3,286.0,154.0,0.27
mp-975997,NaLi2Pb,107.0,5.0,0.48
mp-977189,Na3Bi,19.0,9.0,0.3
mp-977573,HfH3,132.0,95.0,0.21
mp-977578,Zr2TcPd,156.0,54.0,0.34
mp-978088,PrLu3,41.0,24.0,0.25
mp-978089,Pr2IrAu,91.0,23.0,0.38
mp-978256,Mg2TlPb,114.0,33.0,0.37
mp-978500,Si2TcOs,227.0,90.0,0.33
mp-978502,SmAs3,73.0,7.0,0.45
mp-978509,Si3Ru,154.0,35.0,0.4
mp-978563,SmHoIn2,54.0,22.0,0.32
mp-978885,SnTe3,54.0,-52.0,1.23
mp-978911,TbYHg2,63.0,24.0,0.33
mp-979273,TePd3,136.0,21.0,0.43
mp-979933,Tm3Si,59.0,23.0,0.33
mp-979951,Yb3U,10.0,20.0,-0.09
mp-979984,YbP3,75.0,24.0,0.35
mp-981313,KTbO3,55.0,7.0,0.44
mp-981365,V2ReRu,250.0,124.0,0.29
mp-981378,Sr3Yb,14.0,-0.0,0.52
mp-981384,ScOs3,257.0,76.0,0.37
mp-982015,LaDyMg2,38.0,20.0,0.27
mp-982974,LiBeAu2,59.0,46.0,0.19
mp-983063,PmSmHg2,57.0,15.0,0.38
mp-983428,PmDyIn2,59.0,22.0,0.33
mp-984082,CsGdO3,53.0,21.0,0.32
mp-984785,AcMg3,33.0,20.0,0.25
mp-985554,Ac3Nd,28.0,14.0,0.28
mp-985585,Li3ClO,52.0,38.0,0.21
mp-985626,Na3Mn2SbO6,97.0,52.0,0.27
mp-989545,Rb2NaSbCl6,19.0,8.0,0.31
mp-9898,BaCuAs,53.0,33.0,0.24
mp-9937,USbSe,70.0,37.0,0.28
mp-997041,NaCuO2,51.0,22.0,0.31
mp-998527,NiBiO3,122.0,55.0,0.3
mp-998899,YN,142.0,-8.0,0.53
mp-9989,Nb2AsC,206.0,119.0,0.26
mp-999117,TcN,352.0,175.0,0.29
mp-999121,TbTlTe2,31.0,19.0,0.25
mp-999378,NbNi3,233.0,-147.0,0.9
mp-999441,Nb3Cr,199.0,69.0,0.35
mp-999446,Nb3Cr,132.0,3.0,0.49
mp-999540,MnSe,51.0,13.0,0.38
mvc-10883,YMnO3,267.0,89.0,0.35
mvc-11693,TiAlO3,230.0,66.0,0.37
mvc-3449,YCrF5,60.0,-9.0,0.58
mvc-3453,SbF5,9.0,5.0,0.27
mp-1004526,WS,180.0,80.0,0.31
mp-10057,VCoB3,289.0,205.0,0.21
mp-10060,DyBPd3,139.0,7.0,0.47
mp-1006887,CdC,101.0,30.0,0.36
mp-1007690,HgPt3,104.0,22.0,0.4
mp-1008632,V2C,219.0,90.0,0.32
mp-1008835,OsC2,359.0,196.0,0.27
mp-1009077,FeH,177.0,91.0,0.28
mp-10092,KCu4Se3,40.0,14.0,0.34
mp-1009238,Hf2Tl,126.0,28.0,0.4
mp-1009471,NbN,316.0,210.0,0.23
mp-1009835,TaC,291.0,58.0,0.41
mp-1010,MnB4,261.0,240.0,0.15
mp-1013526,VS2,17.0,14.0,0.17
mp-1013550,Ca3SbP,40.0,27.0,0.22
mp-1014,ZrMn2,157.0,15.0,0.45
mp-1014168,CsPbBr3,17.0,7.0,0.31
mp-1014257,Ti3ZnN,146.0,92.0,0.24
mp-1016197,MgSiAs2,60.0,28.0,0.3
mp-1016926,ZnIrO3,186.0,46.0,0.39
mp-1017508,LuTlTe2,30.0,20.0,0.23
mp-1017582,LaPt3C,170.0,121.0,0.21
mp-1018074,GaFeNi2,147.0,27.0,0.41
mp-1018098,Ba2BrN,37.0,18.0,0.29
mp-1018130,PaC2,178.0,-51.0,0.66
mp-1018148,ScAu2,107.0,45.0,0.32
mp-1018153,HfAu2,166.0,7.0,0.48
mp-1018179,AlAu2,129.0,27.0,0.4
mp-1018674,DyAlZn,66.0,51.0,0.19
mp-1018726,HfVGe,146.0,78.0,0.27
mp-1018770,Li3PrBi2,37.0,27.0,0.21
mp-1018786,LiMnSb,31.0,17.0,0.26
mp-1018798,MgCuGe,68.0,-109.0,2.24
mp-1018828,NpSeO,106.0,54.0,0.28
mp-1019262,Ta2N3O,224.0,84.0,0.33
mp-1019564,Ca6Ge2O,42.0,40.0,0.14
mp-1019584,CaAl2SiO6,127.0,70.0,0.27
mp-1019612,Cs4ZnO3,18.0,8.0,0.31
mp-102,Co,212.0,102.0,0.29
mp-1020703,SiGeN2O,123.0,77.0,0.24
mp-1021516,K2Sn,1.0,4.0,-0.21
mp-1022724,CaC4,143.0,80.0,0.26
mp-1022732,FeBiAsO,72.0,26.0,0.34
mp-1023132,K2Cu(ClF)2,19.0,10.0,0.26
mp-1023936,WSe2,9.0,7.0,0.21
mp-1025116,TmCu4Ag,109.0,29.0,0.38
mp-1025276,Sm2AlNO3,168.0,109.0,0.23
mp-1025309,Pr(Re2Si)2,165.0,101.0,0.25
mp-1025338,Tl2CuF4,26.0,10.0,0.33
mp-1025379,Tb2B4C,162.0,124.0,0.2
mp-1025525,DyInPt2,116.0,90.0,0.19
mp-10270,ScCo3C,214.0,99.0,0.3
mp-1027890,Mo2SeS3,20.0,14.0,0.22
mp-10293,BaC2,40.0,11.0,0.38
mp-1029349,Y4Se3N2,69.0,37.0,0.27
mp-1029396,SrHfN2,116.0,45.0,0.33
mp-1029424,LiTi2N3,126.0,71.0,0.26
mp-1029442,Mg2TaN3,122.0,53.0,0.31
mp-1029490,Sr3B3N5,69.0,26.0,0.33
mp-1029592,Li3YN2,81.0,44.0,0.27
mp-1029921,Ca3Al3N5,113.0,58.0,0.28
mp-1038818,MgAl,13.0,-27.0,3.82
mp-10394,CrCoGe,175.0,71.0,0.32
mp-10492,Rb2SiF6,20.0,15.0,0.2
mp-10521,Y(AlGe)2,71.0,34.0,0.29
mp-1078,CaCd2,40.0,23.0,0.26
mp-10848,AsPdS,103.0,36.0,0.34
mp-1085,UOs2,238.0,-1.0,0.5
mp-10861,Hg,9.0,2.0,0.4
mp-10893,MnAlPt2,179.0,-29.0,0.59
mp-10952,Cu2HgGeS4,68.0,29.0,0.31
mp-1096,CeS,87.0,52.0,0.25
mp-1111,Mn5Si3,148.0,46.0,0.36
mp-11113,TiTeAs,83.0,67.0,0.18
mp-1120,Mo3Ir,288.0,108.0,0.33
mp-11263,Zr3Au,118.0,52.0,0.31
mp-11287,CaHg2,38.0,16.0,0.31
mp-11294,DyCd2,56.0,30.0,0.27
mp-11401,ScGa2Ni,107.0,60.0,0.26
mp-1143,Al2O3,232.0,147.0,0.24
mp-11430,Ca3Al7Ag2,63.0,40.0,0.24
mp-11468,NdHg2,52.0,23.0,0.3
mp-1153,Li2S,40.0,33.0,0.18
mp-11534,Np,171.0,111.0,0.23
mp-11578,VZn3,113.0,65.0,0.26
mp-11714,SiC,214.0,187.0,0.16
mp-11719,K4ZnP2,18.0,10.0,0.27
mp-11790,LaCuSe2,57.0,29.0,0.28
mp-11872,Ag2O3,76.0,20.0,0.38
mp-12005,Tm2Al3Si2,85.0,65.0,0.2
mp-12058,Er(PRu)2,158.0,100.0,0.24
mp-12062,AgB2,134.0,17.0,0.44
mp-12077,Y(FeB)2,120.0,75.0,0.24
mp-121,Hg,9.0,-4.0,0.78
mp-12101,Lu(SiOs)2,182.0,79.0,0.31
mp-1220,Be5Au,138.0,120.0,0.16
mp-1233,Cu6Sn5,81.0,37.0,0.3
mp-1252,ZrBe2,119.0,94.0,0.19
mp-12580,Li2CdSn,37.0,21.0,0.26
mp-12614,Ca2Cu,25.0,12.0,0.29
mp-12684,LaAl,53.0,34.0,0.24
mp-1269,SmS,91.0,40.0,0.31
mp-127,Na,8.0,3.0,0.31
mp-12952,HfGaAu,131.0,62.0,0.3
mp-12983,ScSb,50.0,-42.0,1.08
mp-13061,Y2O3,140.0,42.0,0.36
mp-1307,LiGa,34.0,29.0,0.17
mp-13085,Mn2CoSb,169.0,78.0,0.3
mp-1319,ZrTe,68.0,33.0,0.29
mp-13208,Mg2Pt,73.0,40.0,0.27
mp-13240,ScInCu4,113.0,58.0,0.28
mp-13447,Zn13Rh,88.0,40.0,0.3
mp-13472,HfSiRh,190.0,97.0,0.28
mp-13513,SrNiGe2,70.0,37.0,0.28
mp-1359,NbIr,259.0,105.0,0.32
mp-13660,Ca4Sb2O,45.0,36.0,0.19
mp-13725,Li3PO4,70.0,43.0,0.25
mp-13916,LiCaSi2,49.0,36.0,0.21
mp-1394,Rb2O,23.0,8.0,0.34
mp-1403,Sm2S3,77.0,37.0,0.29