material_id,pretty_formula,K_VRH,G_VRH,poisson_ratio
mp-510436,InPd3,141.0,35.0,0.39
mp-5126,ZnSO4,68.0,32.0,0.3
mp-5222,ReTeS,93.0,39.0,0.32
mp-531611,Mg(AlB14)2,190.0,174.0,0.15
mp-540791,Si4Rh3,180.0,88.0,0.29
mp-541289,Y2S3,66.0,30.0,0.3
mp-541754,TiCu2Te3,39.0,25.0,0.24
mp-545974,AlPO4,121.0,39.0,0.36
mp-547125,TbBi2ClO4,78.0,31.0,0.32
mp-549709,ErBi2ClO4,68.0,34.0,0.29
mp-552292,SmBi2IO4,64.0,34.0,0.27
mp-5541,ZrVSi,156.0,60.0,0.33
mp-557257,KVF3,68.0,34.0,0.29
mp-557259,MoF6,5.0,3.0,0.26
mp-559435,CoF3,95.0,47.0,0.29
mp-560767,KNaTiO3,56.0,26.0,0.3
mp-561827,Cs3TlF6,7.0,-12.0,2.5
mp-5637,SrZnO2,90.0,49.0,0.27
mp-567244,Mg2Tl,34.0,11.0,0.35
mp-567354,TiCl3,5.0,3.0,0.28
mp-567712,PrCoGe,74.0,37.0,0.29
mp-568002,HfI3,4.0,2.0,0.31
mp-568269,TmNiBi,84.0,51.0,0.25
mp-568505,As4C3,112.0,77.0,0.22
mp-568565,CrAs,88.0,66.0,0.2
mp-568735,SiC,213.0,187.0,0.16
mp-569106,Yb2CdSb2,33.0,21.0,0.24
mp-569152,SnCl2,6.0,4.0,0.21
mp-569249,Ta3Au,203.0,68.0,0.35
mp-569496,Ce(SiAu2)2,142.0,37.0,0.38
mp-570418,YbI2,4.0,3.0,0.23
mp-570677,Ba5Al5Sn,30.0,18.0,0.25
mp-570691,Ti3Sn,114.0,40.0,0.34
mp-570751,Nb3Te,167.0,85.0,0.28
mp-570791,SiC,214.0,187.0,0.16
mp-571428,MgNi3B2,192.0,86.0,0.3
mp-571513,Rb2NbCl6,10.0,4.0,0.31
mp-580226,CuSe,23.0,2.0,0.45
mp-603,Be2Ag,129.0,84.0,0.23
mp-618991,Cu2S,93.0,29.0,0.36
mp-625136,CsHO,17.0,8.0,0.29
mp-631255,InSiIr,80.0,-156.0,3.27
mp-631256,FeNiMo,176.0,-15.0,0.54
mp-631330,LiTaW2,171.0,-31.0,0.6
mp-631388,CdIrRu,151.0,23.0,0.43
mp-631473,KTi2Bi,52.0,22.0,0.31
mp-631489,Be2CdP,71.0,-139.0,3.34
mp-631694,InCoSi2,40.0,-74.0,2.94
mp-641923,Cs2SnBr6,8.0,4.0,0.28
mp-643243,Cs2H6Pt,11.0,5.0,0.3
mp-647924,Eu2O3,106.0,44.0,0.32
mp-672232,AlNi3,180.0,16.0,0.46
mp-675045,Li7VP4,30.0,14.0,0.3
mp-675402,CuAgO2,105.0,16.0,0.43
mp-677072,Ca(InTe2)2,20.0,10.0,0.28
mp-684969,Sc2S3,56.0,39.0,0.22
mp-685941,In4SbTe3,42.0,19.0,0.3
mp-690794,Sr2HN,30.0,35.0,0.09
mp-696166,CaH4(ClO)2,21.0,7.0,0.34
mp-6999,ScPS4,8.0,6.0,0.2
mp-715482,MoO2,75.0,38.0,0.28
mp-7228,ReO2,277.0,151.0,0.27
mp-7240,NaRuO2,118.0,24.0,0.41
mp-7276,ScUS3,79.0,35.0,0.3
mp-7343,Y3Pt,56.0,19.0,0.35
mp-7366,Sr(AgSn)2,40.0,24.0,0.25
mp-7377,Ba3(AlSn)2,31.0,20.0,0.24
mp-7384,SmF3,112.0,48.0,0.31
mp-753176,AgCO3,62.0,22.0,0.35
mp-753490,TiCuGe,132.0,70.0,0.28
mp-753506,LiBiS2,62.0,36.0,0.26
mp-753669,Hf(MnSn)6,113.0,72.0,0.24
mp-753802,Sc2Ti2O7,137.0,48.0,0.34
mp-753826,LiCuS,62.0,31.0,0.29
mp-754084,Cu2OF2,26.0,11.0,0.32
mp-755018,RbTaO3,106.0,56.0,0.28
mp-755959,NaLiO,38.0,19.0,0.28
mp-756034,NaSmO2,70.0,45.0,0.23
mp-760396,TaAlO4,216.0,116.0,0.27
mp-768,TmAl3,77.0,59.0,0.19
mp-776490,Al2O3,228.0,144.0,0.24
mp-777413,CeScO3,155.0,74.0,0.29
mp-78,Ge,62.0,34.0,0.27
mp-7823,V2NiSe4,84.0,43.0,0.28
mp-7830,UO,174.0,-64.0,0.71
mp-7880,Sr(SiAg)2,60.0,43.0,0.21
mp-7910,Al2HgTe4,26.0,16.0,0.25
mp-7964,YAlO3,201.0,74.0,0.34
mp-7974,RbSmO2,70.0,42.0,0.25
mp-8037,BaThO3,111.0,50.0,0.3
mp-8044,V2PC,227.0,149.0,0.23
mp-8132,Li(TiSe2)3,22.0,14.0,0.23
mp-815,GaNi3,180.0,77.0,0.31
mp-8221,ZrAsRu,187.0,84.0,0.31
mp-8399,CsCdF3,30.0,40.0,0.04
mp-841,Li2O2,71.0,50.0,0.21
mp-850274,H2,8.0,0.0,0.48
mp-861646,ThCdRh2,122.0,15.0,0.44
mp-861880,AcCdRh2,111.0,31.0,0.37
mp-862334,Sc2IrRh,152.0,67.0,0.31
mp-862492,LiErTl2,45.0,17.0,0.33
mp-862619,LiErIn2,51.0,20.0,0.33
mp-862629,ScRh2Pb,140.0,87.0,0.24
mp-862732,PmZn3,64.0,13.0,0.41
mp-862769,RbGe3,4.0,10.0,-0.18
mp-8628,Te4Pt3,49.0,27.0,0.27
mp-862849,Ac2NiIr,87.0,20.0,0.39
mp-862871,PbCl2,29.0,8.0,0.37
mp-862872,PmAgAu2,81.0,7.0,0.46
mp-862902,PmDyMg2,35.0,22.0,0.24
mp-864602,Nd2MgTl,40.0,19.0,0.29
mp-864607,ZrCdPd2,136.0,34.0,0.39
mp-864920,MgZrAu2,117.0,32.0,0.37
mp-864954,MgMoN2,246.0,183.0,0.2
mp-864962,CaAcZn2,41.0,22.0,0.27
mp-864980,MnAlRu2,218.0,127.0,0.26
mp-865000,HfScIr2,181.0,170.0,0.14
mp-865001,HfScOs2,201.0,93.0,0.3
mp-865011,Mn2NbAl,190.0,99.0,0.28
mp-865023,HfTc2Sb,204.0,92.0,0.3
mp-865026,Mn2VSi,239.0,128.0,0.27
mp-865116,LiSmTl2,40.0,12.0,0.36
mp-865191,FeGeRu2,227.0,99.0,0.31
mp-865235,Ti6Al16Ni7,130.0,91.0,0.22
mp-865262,TmTaRu2,180.0,78.0,0.31
mp-865341,Tm2InOs,109.0,31.0,0.37
mp-865469,Ti2MnRu,188.0,80.0,0.31
mp-865609,LuGaRh2,165.0,61.0,0.34
mp-865641,Y2NiRu,99.0,41.0,0.32
mp-865655,TiNbTc2,222.0,96.0,0.31
mp-865696,HoGaRh2,142.0,47.0,0.35
mp-865796,LuCdRh2,144.0,50.0,0.34
mp-865867,Li2YTl,129.0,50.0,0.33
mp-865869,Be2CuPt,171.0,57.0,0.35
mp-866056,AcN,77.0,18.0,0.39
mp-866132,Na2TlSb,22.0,19.0,0.17
mp-866134,VFe3,193.0,90.0,0.3
mp-866176,Li2PdAu,65.0,6.0,0.45
mp-866221,HfSnRh2,179.0,-32.0,0.59
mp-866279,CaCdPd2,76.0,18.0,0.39
mp-867159,SmDyMg2,36.0,22.0,0.24
mp-867210,LiCa2Hg,13.0,9.0,0.21
mp-867224,CaNdCd2,42.0,20.0,0.3
mp-867243,Sc2ZnOs,121.0,46.0,0.33
mp-867306,AlCuAu2,129.0,28.0,0.4
mp-867350,Ca2MgIn,30.0,19.0,0.25
mp-867361,CeTlAu2,66.0,19.0,0.37
mp-867775,Al2NiRu,179.0,87.0,0.29
mp-867805,LiCa2Ga,15.0,16.0,0.1
mp-867925,SrAcHg2,37.0,19.0,0.28
mp-8756,KLiSe,28.0,17.0,0.25
mp-9061,KPdF3,68.0,21.0,0.36
mp-9085,CsTbS2,43.0,25.0,0.25
mp-9172,Li4TiO4,80.0,43.0,0.27
mp-9200,K3AuO,19.0,12.0,0.24
mp-9383,SrHfN2,156.0,116.0,0.2
mp-9399,SmTe3,10.0,18.0,-0.05
mp-950,NaZn13,64.0,45.0,0.21
mp-9567,Ba(MgSb)2,36.0,24.0,0.23
mp-9586,NbSnS2,71.0,30.0,0.31
mp-966800,InP,58.0,31.0,0.27
mp-971718,ZnBi3,50.0,11.0,0.4
mp-971859,Zn3B,95.0,-5.0,0.53
mp-971911,ZnN,126.0,25.0,0.41
mp-972058,YbTmO3,101.0,46.0,0.3
mp-972160,YbMgO3,106.0,-44.0,0.74
mp-972296,ZrOsO3,167.0,-200.0,1.5
mp-972529,SmP3,85.0,-149.0,2.6
mp-972987,Mn3Tl,54.0,47.0,0.16
mp-973004,ScRu3,206.0,48.0,0.39
mp-973109,NdYIr2,109.0,-1.0,0.51
mp-973181,Mn3Zn,181.0,61.0,0.35
mp-973353,SbPt3,201.0,20.0,0.45
mp-973556,LuTh3,50.0,36.0,0.21
mp-973652,LuRu3,186.0,49.0,0.38
mp-973778,Hg3F,39.0,-2.0,0.53
mp-973874,LiLa2Al,41.0,22.0,0.28
mp-973887,LaPrHg2,50.0,15.0,0.36
mp-974061,KSiO3,176.0,116.0,0.23
mp-974789,Rb3Sn,1.0,9.0,-0.62
mp-974832,Rb3Pb,7.0,5.0,0.2
mp-974949,Rb3Ir,16.0,5.0,0.35
mp-975347,NdGeO3,144.0,66.0,0.3
mp-975522,NdLuTl2,55.0,17.0,0.36
mp-976023,Li3Ga,26.0,14.0,0.27
mp-976425,Nd2Mg,35.0,16.0,0.3
mp-976893,Ni3Sb,140.0,59.0,0.32
mp-977117,NaTeO3,134.0,79.0,0.26
mp-977354,HoTaOs2,209.0,90.0,0.31
mp-977435,ZrAlRh2,201.0,100.0,0.29
mp-977443,ZrGeRu2,213.0,89.0,0.32
mp-977462,ZrCdAu2,149.0,25.0,0.42
mp-978267,Mg2ZnRh,88.0,28.0,0.35
mp-978268,MgZn,51.0,14.0,0.37
mp-978290,Mg3Os,85.0,29.0,0.35
mp-978304,Mg3Ta,64.0,40.0,0.24
mp-978496,SiB4,138.0,100.0,0.21
mp-978547,SmLuIn2,57.0,17.0,0.36
mp-978557,SmDyHg2,60.0,15.0,0.39
mp-978918,TbZr,64.0,32.0,0.28
mp-979431,YLuZn2,67.0,27.0,0.32
mp-980021,Yb3Os,48.0,9.0,0.41
mp-980203,TiOs3,308.0,131.0,0.31
mp-981747,Sm5Mg,36.0,17.0,0.3
mp-981749,TcAg3,110.0,34.0,0.36
mp-983154,Pm2ZnPt,81.0,24.0,0.36
mp-983427,PmDyHg2,56.0,8.0,0.43
mp-983583,Er2ZnCu,75.0,33.0,0.3
mp-984050,BiH3,74.0,14.0,0.41
mp-984627,Dy2ZnHg,68.0,24.0,0.34
mp-989524,LaWN3,170.0,57.0,0.35
mp-989544,Cs2SeClF6,52.0,-3.0,0.53
mp-989550,Rb2TlInCl6,22.0,8.0,0.35
mp-989579,Rb2LiTlCl6,20.0,10.0,0.28
mp-989695,Cu,142.0,48.0,0.35
mp-990084,Na2Cl,13.0,8.0,0.26
mp-9920,TiS3,19.0,11.0,0.25
mp-995181,SnGe,5.0,3.0,0.26
mp-996980,AgAuO2,91.0,17.0,0.41
mp-997108,RbAgO2,28.0,9.0,0.36
mp-998196,RbCuBr3,30.0,13.0,0.31
mp-998913,KO3,14.0,5.0,0.34
mvc-11686,SnO2,42.0,34.0,0.19
mvc-14334,MgVF5,80.0,93.0,0.08
mvc-15521,YAgO3,167.0,27.0,0.42
mvc-15848,MnZnF6,78.0,40.0,0.28
mp-1002188,TcB,294.0,179.0,0.25
mp-1002572,LiMnO2,110.0,69.0,0.24
mp-1003637,LiMn3O6,130.0,72.0,0.27
mp-10037,AlCo3C,234.0,116.0,0.29
mp-10052,TiAs,116.0,65.0,0.27
mp-1006884,CoMo,199.0,-231.0,1.45
mp-10069,Ce(P3Ru)4,167.0,110.0,0.23
mp-1007693,HfOs3,302.0,117.0,0.33
mp-1008986,IrN,215.0,-63.0,0.66
mp-1009592,CrFeTe,105.0,66.0,0.24
mp-1009694,ReN,331.0,77.0,0.39
mp-1013558,Ca3BiP,37.0,27.0,0.21
mp-1013588,Sr3SbP,98.0,18.0,0.41
mp-1013911,Na2CoP2O7,51.0,18.0,0.34
mp-1014229,Ti2Zn,96.0,47.0,0.29
mp-1016882,CdOsO3,135.0,15.0,0.45
mp-1016903,CdGeO3,182.0,89.0,0.29
mp-1017591,BaRuO3,147.0,83.0,0.26
mp-1018032,SrCdO2,115.0,53.0,0.3
mp-1018102,ZrPd2,145.0,29.0,0.41
mp-1018124,Ti2Rh,157.0,82.0,0.28
mp-1018166,AlTc2,224.0,127.0,0.26
mp-10186,PuSi2,93.0,48.0,0.28
mp-1018652,KCdSb,33.0,11.0,0.35
mp-1018723,HoCo3Cu2,143.0,58.0,0.32
mp-1019279,SrZnSn,43.0,27.0,0.24
mp-10213,YGe2,58.0,26.0,0.3
mp-10214,Y2GeRh3,145.0,50.0,0.35
mp-1024067,Na2ZnS2,30.0,14.0,0.3
mp-1024987,HoCu4Ag,111.0,29.0,0.38
mp-1025176,HfGa5Ni,91.0,34.0,0.33
mp-1025187,CdPPt5,186.0,63.0,0.35
mp-1025224,V(CrS2)2,84.0,58.0,0.22
mp-1025301,GaPPd5,141.0,62.0,0.31
mp-1025311,CdAsPt5,199.0,59.0,0.37
mp-1025339,Y2Fe2Si2C,126.0,83.0,0.23
mp-1025478,TbAu3,95.0,27.0,0.37
mp-1029293,CsVN2,104.0,43.0,0.32
mp-1029395,LiCrN2,85.0,48.0,0.26
mp-1029407,NaCrN2,76.0,36.0,0.29
mp-1029605,Na2MnN2,48.0,21.0,0.31
mp-1032,Ta2B,244.0,178.0,0.21
mp-10356,Ho3InC,40.0,10.0,0.38
mp-1038915,CaZn,24.0,-247.0,-1.61
mp-1039141,MgAl,58.0,33.0,0.26
mp-1039147,CaZn,57.0,24.0,0.31
mp-1039383,CaMg3,25.0,8.0,0.35
mp-1039385,Ca5Mg,17.0,5.0,0.38
mp-10636,SrSb2,25.0,21.0,0.18
mp-10641,Sc,52.0,14.0,0.38
mp-10667,SrAgP,56.0,35.0,0.24
mp-10697,Sr(GeRh)2,82.0,53.0,0.23
mp-1077723,Zr,90.0,38.0,0.31
mp-1105,BaO2,67.0,35.0,0.28
mp-11181,Cs(MnP)2,47.0,28.0,0.25
mp-11191,CrSi2,181.0,154.0,0.17
mp-112,Y,41.0,26.0,0.24
mp-11266,BaCd2,25.0,8.0,0.35
mp-11290,CaSn3,43.0,26.0,0.25
mp-11299,Cd2Hg,37.0,13.0,0.34
mp-1135,NbPd3,200.0,84.0,0.32
mp-1147,Ti3O5,171.0,76.0,0.31
mp-11490,Li2ZnSn,38.0,20.0,0.28
mp-11515,NbRh,218.0,124.0,0.26
mp-11516,NbRu,180.0,141.0,0.19
mp-11537,NbAlRu2,231.0,117.0,0.28
mp-1170,SnS2,15.0,10.0,0.21
mp-11725,CO2,5.0,2.0,0.33
mp-11770,CoCu2SnS4,72.0,27.0,0.33
mp-1180,MnPt3,217.0,92.0,0.32
mp-11818,BaZnGe,40.0,29.0,0.21
mp-11833,UCuGe,286.0,69.0,0.39
mp-1186,ZrS2,18.0,13.0,0.21
mp-12266,CaCuF4,77.0,33.0,0.31
mp-12537,Ti2GaC,139.0,108.0,0.19
mp-1263,URu3,250.0,92.0,0.34
mp-12769,YSi2,85.0,26.0,0.36
mp-12802,AlCu3,133.0,46.0,0.35
mp-12884,Hf5Te4,76.0,36.0,0.3
mp-12899,HoSi,92.0,66.0,0.21
mp-12954,CuBS2,114.0,63.0,0.27
mp-12961,YAlPd,93.0,22.0,0.39
mp-1302,PrO2,120.0,162.0,0.03
mp-1314,Li12Si7,36.0,32.0,0.16
mp-13434,CaMgNi4,106.0,50.0,0.29
mp-13450,HfSb,101.0,61.0,0.25
mp-13501,ErCoC2,173.0,99.0,0.26
mp-13502,TmCoC2,175.0,99.0,0.26
mp-13992,Cs2Pt3S4,21.0,6.0,0.38
mp-1463,LaIr2,242.0,61.0,0.38
mp-1556,PuTe,71.0,27.0,0.33
mp-1558,SrPd2,80.0,33.0,0.32
mp-1559,Mg3N2,110.0,77.0,0.22
mp-15617,Cr5B3,291.0,196.0,0.23
mp-1570,YFe2,92.0,36.0,0.33
mp-16228,YS2,39.0,-42.0,1.35
mp-16305,ScPRu,175.0,103.0,0.25
mp-16340,GdPPt,119.0,48.0,0.32
mp-16378,HoS2,62.0,-136.0,4.61
mp-16495,AlCrFe2,239.0,97.0,0.32
mp-16521,Al3Os2,204.0,114.0,0.26
mp-16522,Al2Pd,112.0,30.0,0.38
mp-166,Ca,17.0,0.0,0.5
mp-1670,MnPt,168.0,72.0,0.31
mp-16755,Mg(AlS2)2,19.0,11.0,0.25
mp-16775,CdCu2,100.0,31.0,0.36
mp-1682,ZrAs,118.0,65.0,0.27
mp-1687,BaPd2,71.0,25.0,0.34
mp-17095,CsCuSe4,12.0,8.0,0.22
mp-1743,Mo5As4,145.0,81.0,0.26
mp-178,ThAl,72.0,35.0,0.29
mp-1820,YbS,63.0,45.0,0.21
mp-18919,CoPdO2,153.0,36.0,0.39
mp-19050,Ca2MnO4,133.0,69.0,0.28
mp-19141,K6Co2O7,35.0,17.0,0.28
mp-19231,Mn(SbO2)2,41.0,14.0,0.35
mp-19279,Li2MnO2,104.0,60.0,0.26
mp-1932,Nb3Os,223.0,91.0,0.32
mp-19353,PrCrO3,168.0,109.0,0.23
mp-1936,TaAs,176.0,97.0,0.27
mp-1968,La2O3,116.0,37.0,0.35
mp-19809,MnCoSi,161.0,86.0,0.27
mp-19850,MnCo2Ge,195.0,89.0,0.3
mp-2018,AlFe3,174.0,74.0,0.31
mp-2031,Be2Cu,137.0,125.0,0.15
mp-20353,GdGa,61.0,36.0,0.25
mp-20440,MnNi2Sn,146.0,35.0,0.39
mp-2052,ScAs,84.0,53.0,0.24
mp-20533,SrIn2Pt,52.0,27.0,0.28
mp-20541,V2P,207.0,102.0,0.29
mp-20551,GaCo2Ni,180.0,58.0,0.36
mp-2059,NbAs,162.0,88.0,0.27
mp-20805,PdPbF4,65.0,18.0,0.37
mp-20814,Dy(BC)2,180.0,115.0,0.24
mp-20822,TbMnSi,79.0,46.0,0.26
mp-20857,CoB,303.0,152.0,0.29
mp-2089,ZrTe3,21.0,10.0,0.29
mp-20971,SnPt3,201.0,58.0,0.37
mp-21031,Pd3PbC,173.0,2.0,0.49
mp-21098,UPb,65.0,11.0,0.42
mp-21318,PtPb2,72.0,16.0,0.4
mp-2145,ErSi2,82.0,-66.0,1.04
mp-21481,Pr3Pb,38.0,20.0,0.28
mp-21893,MnTe2,49.0,25.0,0.29
mp-2222,MnHg,113.0,25.0,0.4
mp-22325,P2Pb2O7,46.0,20.0,0.31
mp-22384,DyInPt,102.0,33.0,0.35
mp-22535,HfPbO3,167.0,88.0,0.28
mp-22556,Tm3TlC,44.0,12.0,0.37
mp-22607,Zn(InSe2)2,27.0,17.0,0.24
mp-22793,AlFe3C,230.0,98.0,0.31
mp-22881,CdCl2,8.0,4.0,0.27
mp-2293,MnSe,55.0,13.0,0.39
mp-22939,BiClO,26.0,18.0,0.22
mp-23152,Bi,29.0,13.0,0.31
mp-23208,UCl3,25.0,14.0,0.26
mp-23214,CaCl2,19.0,11.0,0.25
mp-23292,HgBr2,4.0,2.0,0.26
mp-2339,Ti3Pt,166.0,58.0,0.34
mp-23560,Ge3(BiO3)4,51.0,41.0,0.18
mp-23704,NaAlH4,19.0,12.0,0.24
mp-23711,MgH2,48.0,33.0,0.22
mp-23712,MgH2,61.0,27.0,0.31
mp-2395,Sb3Rh,89.0,52.0,0.26
mp-24084,KH,14.0,11.0,0.19
mp-24149,LiCe2HO3,110.0,75.0,0.22
mp-250,Mg2Ge,42.0,13.0,0.36
mp-25082,Mo(CO)6,3.0,2.0,0.19
mp-2536,Ni2B,250.0,100.0,0.32
mp-2542,BeO,208.0,156.0,0.2
mp-2589,MgO2,129.0,85.0,0.23
mp-27393,AlPd5I2,20.0,13.0,0.23
mp-2744,LiPd,79.0,33.0,0.31
mp-27454,BaLi2Si,27.0,15.0,0.26
mp-27505,Fe3Sn2,105.0,57.0,0.27
mp-27577,Cd2As3I,35.0,18.0,0.28
mp-27638,NiI2,14.0,6.0,0.3
mp-27823,SmClO,76.0,34.0,0.31
mp-2797,YCu5,109.0,42.0,0.33
mp-28084,Rb2PdBr6,12.0,6.0,0.29
mp-28171,K3IO,18.0,13.0,0.22
mp-2826,Lu2S3,77.0,31.0,0.32
mp-2828,HfN,266.0,156.0,0.25
mp-284,AlCo,179.0,118.0,0.23
mp-2856,Mn4Al11,125.0,85.0,0.22
mp-28843,Tl2SnTe5,18.0,8.0,0.3
mp-29056,La3InC,28.0,40.0,0.02
mp-2924,Ho(SiNi)2,144.0,72.0,0.29
mp-295,HoAs,74.0,53.0,0.21
mp-29584,K4BeAs2,20.0,8.0,0.31
mp-29742,NdSi2Rh3,165.0,97.0,0.26
mp-29809,Ca2GeN2,77.0,54.0,0.22
mp-2988,Li2GaRh,59.0,32.0,0.27
mp-30177,Y(Al2Cr)4,120.0,78.0,0.23
mp-30273,AcClO,67.0,30.0,0.3
mp-30362,Zr3Ag,92.0,14.0,0.43
mp-30392,Li2InAu,72.0,35.0,0.29
mp-30570,CrGaFe2,252.0,49.0,0.41
mp-30673,Ti2Ga3,91.0,67.0,0.2
mp-30684,Zr3Ga2,112.0,67.0,0.25
mp-30785,Mn3Pt,90.0,50.0,0.26
mp-30799,NdTlPd,73.0,27.0,0.34
mp-30884,YZn3,71.0,38.0,0.27
mp-3102,TaCuS3,43.0,25.0,0.26
mp-31118,SmScO3,162.0,81.0,0.29
mp-31145,BaCuBi,37.0,24.0,0.23
mp-31184,AlFe2,117.0,60.0,0.28
mp-31380,SmPd,80.0,27.0,0.35
mp-3142,Ca(NO3)2,8.0,6.0,0.17
mp-3155,Sc3FeC4,178.0,120.0,0.22
mp-33997,TaO2F,183.0,92.0,0.28
mp-3441,Y(SiRh)2,156.0,88.0,0.26
mp-35308,CuCN,28.0,15.0,0.27
mp-36884,Mn2SnO4,128.0,48.0,0.33
mp-37091,Sr(AlTe2)2,23.0,14.0,0.25
mp-374,CrB2,252.0,183.0,0.21
mp-3758,Eu(NiP)2,122.0,75.0,0.24
mp-40251,BaLaMgTaO6,142.0,43.0,0.36
mp-4126,KUO3,130.0,66.0,0.28
mp-4148,Ho(SiPd)2,132.0,53.0,0.32
mp-421,DyNi2,184.0,41.0,0.4
mp-4355,YTiO3,181.0,75.0,0.32
mp-4634,LaNi4B,133.0,64.0,0.29
mp-4785,CeAl3Pd2,116.0,59.0,0.28
mp-4820,ZrSiO4,203.0,96.0,0.3
mp-4823,Na2PdC2,46.0,20.0,0.31
mp-495,LuGa3,61.0,31.0,0.28
mp-4955,AlVCo2,192.0,98.0,0.28
mp-4964,YSbPt,97.0,47.0,0.29
mp-504,CuS,80.0,25.0,0.36
mp-504974,Fe2Mo3O8,141.0,42.0,0.36
mp-505782,Cs2SO4,22.0,10.0,0.3
mp-5238,GaCuS2,75.0,36.0,0.29
mp-527,BaCd,23.0,13.0,0.27
mp-53,P,114.0,-150.0,1.67
mp-5347,KAlF4,57.0,16.0,0.37
mp-5353,ErCo3B2,217.0,123.0,0.26
mp-541899,CsCdBr3,14.0,9.0,0.23
mp-5438,TmBRh3,184.0,87.0,0.3
mp-544,Ti3Ir,169.0,13.0,0.46
mp-548403,CaCO3,73.0,9.0,0.44
mp-551900,PrBi2BrO4,59.0,30.0,0.29
mp-552738,TmBi2IO4,67.0,38.0,0.26
mp-554462,TiS,138.0,88.0,0.24
mp-555223,Cs2MnF5,26.0,8.0,0.37
mp-555370,V(MoS2)2,95.0,70.0,0.2
mp-556225,Ag2S,23.0,8.0,0.35
mp-556242,YF3,134.0,51.0,0.33
mp-557713,Ba2LaTaO6,121.0,48.0,0.33
mp-5590,YMgGa,60.0,48.0,0.18
mp-559612,KLiO,25.0,18.0,0.21
mp-561203,F2,5.0,2.0,0.3
mp-561511,FeAsS,143.0,117.0,0.18
mp-562468,TiF3,102.0,42.0,0.32
mp-5671,Sr(CoP)2,85.0,45.0,0.27
mp-567191,CaAlSi,55.0,38.0,0.22
mp-567590,LuOs2,215.0,59.0,0.37
mp-567666,Ba3BiN,25.0,12.0,0.29
mp-567769,Ca(SiPd)2,108.0,41.0,0.33
mp-568137,Cs3Mg2Cl7,21.0,10.0,0.29
mp-568280,Ba(NiAs)2,64.0,27.0,0.32
mp-568430,BaRh2,95.0,30.0,0.36
mp-568509,Er(CoB)2,145.0,112.0,0.19
mp-568687,TbGa2Co3,113.0,63.0,0.26
mp-568695,CaCdSn,42.0,26.0,0.25
mp-568748,Fe2B,173.0,40.0,0.39
mp-568983,MnSbRh,174.0,-1.0,0.5
mp-569051,MgH2,48.0,32.0,0.22
mp-569304,C,113.0,89.0,0.19
mp-569310,Sr(POs)2,84.0,52.0,0.24
mp-569446,NiPb,86.0,37.0,0.31
mp-569516,HfNi5,169.0,86.0,0.28
mp-569593,PmMg,38.0,23.0,0.25
mp-569624,HfCr2,190.0,66.0,0.34
mp-569671,ZrSb,104.0,58.0,0.26
mp-569683,InAu3,108.0,16.0,0.43
mp-569850,CeBr3,22.0,11.0,0.28
mp-569960,ZnBr2,8.0,4.0,0.28
mp-570229,ThBr4,21.0,9.0,0.31
mp-570303,KTmI3,21.0,8.0,0.34
mp-570673,ScNi5,159.0,78.0,0.29
mp-570752,H2,-0.0,0.0,0.54
mp-570899,YbNi2Sn,95.0,47.0,0.29
mp-571071,HoSi2Rh3,185.0,100.0,0.27
mp-571249,Tb,40.0,26.0,0.24
mp-571270,NbSe2,24.0,17.0,0.21
mp-571271,TmPt2,170.0,72.0,0.31
mp-5733,CaSiO3,92.0,47.0,0.28
mp-573563,Sm(CoP)2,110.0,94.0,0.17
mp-5749,Cr2FeSe4,49.0,33.0,0.22
mp-581712,TiNiSb,114.0,-1.0,0.5
mp-581754,Eu(PPd)2,96.0,48.0,0.28
mp-582360,TaPd3,200.0,76.0,0.33
mp-5852,Pr(SiOs)2,144.0,87.0,0.25
mp-601285,MnGaNi2,158.0,63.0,0.32
mp-607475,Zr4In5Co2,89.0,53.0,0.25
mp-614603,CsI,7.0,4.0,0.28
mp-625,Mg3Ru2,107.0,51.0,0.29
mp-625054,AlHO2,114.0,82.0,0.21
mp-627,NpSe,83.0,10.0,0.44
mp-631316,Li2GaSb,17.0,30.0,-0.05
mp-631540,NiBTe,128.0,-47.0,0.71
mp-631562,SiBAu,138.0,-102.0,0.99
mp-631566,TaAuBr,98.0,-8.0,0.54
mp-634751,YbH2,49.0,34.0,0.22
mp-640024,HfInNi2,144.0,55.0,0.33
mp-643260,Na2H4Pd,23.0,11.0,0.28
mp-644246,EuH3Pd,83.0,31.0,0.33
mp-644271,LiHS,22.0,10.0,0.3
mp-644497,BaTiO3,23.0,12.0,0.28
mp-6521,LiLaTiO4,120.0,56.0,0.3
mp-6613,Ba2YTaO6,138.0,81.0,0.26
mp-680671,Mg4Zn7,61.0,32.0,0.28
mp-685036,Al2O3,146.0,89.0,0.25
mp-690535,Na(WO3)2,180.0,103.0,0.26
mp-6919,ScSnAu,82.0,37.0,0.3
mp-6979,ThGeS,97.0,57.0,0.25
mp-7017,NaNbN2,131.0,91.0,0.22
mp-7041,CaHgO2,65.0,14.0,0.4
mp-712,YCu,70.0,35.0,0.29
mp-7163,Tb,41.0,25.0,0.24
mp-7186,NdAl3Ni2,121.0,63.0,0.28
mp-752735,PdO2,211.0,19.0,0.46
mp-753326,LiAg2F6,63.0,16.0,0.38
mp-754055,CsErO2,89.0,42.0,0.3
mp-754065,Hg(SbO3)2,131.0,34.0,0.38
mp-754138,CsDyO2,84.0,40.0,0.29
mp-7544,ZrSiRu,191.0,100.0,0.28
mp-754403,ZrO2,174.0,39.0,0.4
mp-754531,Al2O3,107.0,58.0,0.27
mp-754960,SmIO,11.0,36.0,-0.28
mp-755690,NbO2,181.0,89.0,0.29
mp-755894,Li2O,62.0,30.0,0.29
mp-757031,Mg2TiO4,147.0,72.0,0.29
mp-7575,LiZnN,116.0,85.0,0.21
mp-7589,Mg2NF,104.0,72.0,0.22
mp-761872,Na2Sn2O3,32.0,14.0,0.31
mp-764233,Na8CoO6,47.0,25.0,0.27
mp-768358,ScInO3,152.0,60.0,0.33
mp-769111,Sc3Bi3O11,107.0,36.0,0.35
mp-770649,Li5NbO5,99.0,64.0,0.23
mp-771123,ScFeO3,171.0,72.0,0.32
mp-774736,LiCuS,43.0,15.0,0.34
mp-776150,ScAgO3,132.0,47.0,0.34
mp-776404,ZrO2,195.0,88.0,0.3
mp-7814,Ta2CS2,35.0,25.0,0.21
mp-7819,Pd4S,147.0,37.0,0.38
mp-7857,TiB,207.0,190.0,0.15
mp-795,LiSi,52.0,34.0,0.23
mp-7988,Cs2O,5.0,2.0,0.32
mp-8192,Rb2PtF6,22.0,10.0,0.3
mp-8231,ZrSO,168.0,84.0,0.29
mp-827,KN3,20.0,11.0,0.26
mp-842,CaPt2,132.0,59.0,0.31
mp-8436,Ta2PdSe6,18.0,9.0,0.28
mp-8566,Ag,86.0,26.0,0.36
mp-861663,LiRh2Pb,130.0,75.0,0.26
mp-861961,TiZnRh2,193.0,83.0,0.31
mp-861978,Hf2ReIr,216.0,105.0,0.29
mp-861994,Ho2TlCd,58.0,24.0,0.32
mp-862296,LiAlPt2,161.0,134.0,0.17
mp-862311,Sc2GaRu,113.0,38.0,0.35
mp-862473,Sc2AgRu,112.0,38.0,0.35
mp-862549,LiAcTl2,35.0,2.0,0.47
mp-862700,AlVOs2,273.0,140.0,0.28
mp-862702,Sc2AgHg,78.0,32.0,0.32
mp-862705,AlZnIr2,221.0,109.0,0.29
mp-862725,ScTc2W,223.0,84.0,0.33
mp-862923,PmInAg2,73.0,23.0,0.36
mp-862996,Pm2CdIn,56.0,24.0,0.31
mp-8632,V,179.0,-17.0,0.55
mp-863651,Ho2CdIn,55.0,29.0,0.28
mp-863709,Ir3Rh,324.0,202.0,0.24
mp-863716,Pm2IrPd,107.0,31.0,0.37
mp-863717,Pm2NiRu,29.0,27.0,0.15
mp-864617,NdI3,3.0,2.0,0.27
mp-864626,HoThTc2,120.0,24.0,0.41
mp-864629,Pm2TlCd,52.0,19.0,0.34
mp-864770,Ta2MoOs,215.0,129.0,0.25
mp-864790,Nd2BC,44.0,26.0,0.25
mp-864807,HfZnNi2,151.0,49.0,0.35
mp-864915,HfBr3,11.0,2.0,0.41
mp-864927,Hf2ReOs,218.0,100.0,0.3
mp-864947,ZrSnRh2,172.0,-112.0,0.92
mp-864952,Mg3Ag,48.0,23.0,0.29
mp-865014,Mg2Cu,56.0,29.0,0.28
mp-865156,Dy2ZnGa,63.0,39.0,0.24
mp-865212,Fe3Re,310.0,177.0,0.26
mp-865320,Lu2PdRu,114.0,49.0,0.31
mp-865376,YMg3,40.0,19.0,0.3
mp-865482,VTc2Ge,239.0,90.0,0.33
mp-865501,V2TcRu,255.0,112.0,0.31
mp-865524,YCdPt2,114.0,19.0,0.42
mp-865566,LuZnRh2,146.0,52.0,0.34
mp-865582,Li2CdPd,52.0,13.0,0.38
mp-865899,Ti3Os,157.0,49.0,0.36
mp-865939,LiMg2,30.0,22.0,0.2
mp-865996,YbSbPd2,91.0,27.0,0.37
mp-866000,CaLaCd2,41.0,20.0,0.29
mp-866006,CaBi3,45.0,10.0,0.39
mp-866014,CaSmHg2,48.0,24.0,0.29
mp-866071,MgTaOs2,229.0,99.0,0.31
mp-866087,MgSiRh2,177.0,78.0,0.31
mp-866112,HoNbRu2,177.0,68.0,0.33
mp-866125,LuTaRu2,172.0,87.0,0.28
mp-866171,YMgAu2,84.0,19.0,0.4