material_id,pretty_formula,K_VRH,G_VRH,poisson_ratio
mp-1468,P4S3,1.0,0.0,0.3
mp-1482,Zr2Al3,108.0,69.0,0.24
mp-14827,Li7NbN4,82.0,64.0,0.19
mp-1491,VB2,286.0,241.0,0.17
mp-1501,Al3Pt5,199.0,62.0,0.36
mp-15113,Na2Si3O7,100.0,67.0,0.23
mp-1569,Be2C,201.0,231.0,0.08
mp-1589,TiCr2,197.0,72.0,0.34
mp-1594,Ni2Ge,177.0,44.0,0.39
mp-15955,Y(BC)2,172.0,112.0,0.23
mp-160,B,211.0,200.0,0.14
mp-16236,KAgSe,27.0,13.0,0.29
mp-16238,Li2AgSb,47.0,21.0,0.3
mp-16245,CaSbAu,53.0,24.0,0.31
mp-16272,Ce(FeP3)4,161.0,132.0,0.18
mp-16293,KSbO3,112.0,73.0,0.23
mp-16317,Si5Pt12,207.0,-15.0,0.54
mp-16337,Ga2HgTe4,24.0,15.0,0.24
mp-16356,TiNiGe,157.0,83.0,0.27
mp-16370,Th2Ge,77.0,26.0,0.35
mp-1649,Fe3Pt,180.0,40.0,0.4
mp-16613,AlAuO2,172.0,72.0,0.32
mp-16718,Al6Tc,107.0,68.0,0.24
mp-16731,YP,121.0,118.0,0.13
mp-1823,Ti3Al,115.0,61.0,0.27
mp-1880,SbF3,15.0,8.0,0.28
mp-18803,Na2WO4,52.0,28.0,0.27
mp-18928,Mn2SiO4,116.0,50.0,0.31
mp-18963,Ba2Mn3(AsO)2,50.0,37.0,0.2
mp-19004,Sr8Fe8O23,124.0,74.0,0.25
mp-19033,WO3,56.0,59.0,0.11
mp-19080,Na2Mn3O7,77.0,31.0,0.32
mp-19094,VO2,233.0,119.0,0.28
mp-19142,Mn2V2O7,96.0,32.0,0.35
mp-19443,WO3,197.0,101.0,0.28
mp-1955,ErCu,79.0,39.0,0.29
mp-19736,EuTe,26.0,2.0,0.47
mp-19784,In2Si2O7,228.0,94.0,0.32
mp-19923,GdAl2,114.0,59.0,0.28
mp-20207,MnAsRh,136.0,37.0,0.37
mp-20304,RhN2,209.0,115.0,0.27
mp-20531,NdCoGe,69.0,38.0,0.27
mp-20662,Sn4Pt,59.0,29.0,0.29
mp-20685,Cr3Ge,211.0,128.0,0.25
mp-20735,Ce3Sn,56.0,37.0,0.23
mp-20865,YCuPb,68.0,44.0,0.23
mp-20906,HoCoC,137.0,57.0,0.32
mp-21038,Dy3Mn3Ga2Si,80.0,41.0,0.28
mp-21069,YSiRu,130.0,52.0,0.32
mp-21200,PuGa2,14.0,45.0,-0.28
mp-21242,LiYbPb,27.0,24.0,0.15
mp-213,CaPd,58.0,22.0,0.33
mp-21372,CePRuO,123.0,67.0,0.27
mp-21400,Ga3Pt2,131.0,40.0,0.36
mp-21409,Zn(InS2)2,11.0,29.0,-0.19
mp-2191,ErSb,57.0,37.0,0.23
mp-22044,Sm2Ge2Ru,88.0,44.0,0.28
mp-22144,Ta2InC,177.0,102.0,0.26
mp-22149,DyGeAu,89.0,45.0,0.28
mp-22304,Cd(InSe2)2,23.0,13.0,0.26
mp-22412,Ba(MnGe)2,41.0,31.0,0.2
mp-22414,CuSeO3,31.0,29.0,0.15
mp-22461,Fe3Sn,119.0,59.0,0.29
mp-22514,Mn2Sn,95.0,45.0,0.29
mp-2267,HoB2,170.0,156.0,0.15
mp-22704,YIn,56.0,16.0,0.37
mp-2275,UF6,5.0,3.0,0.24
mp-22848,Cl2,2.0,1.0,0.25
mp-22889,ZnCl2,7.0,5.0,0.21
mp-22921,TbBi,52.0,31.0,0.25
mp-22924,NaBi,29.0,13.0,0.31
mp-2294,Al3Ir,151.0,49.0,0.35
mp-23068,NdBrO,18.0,15.0,0.18
mp-2348,Zr2Au,119.0,45.0,0.33
mp-2364,PaO2,203.0,103.0,0.28
mp-23791,B(HO)3,13.0,7.0,0.29
mp-2388,CdTe,54.0,21.0,0.33
mp-2410,SrAg5,59.0,23.0,0.33
mp-24205,SrHI,53.0,59.0,0.09
mp-24287,CrH,238.0,137.0,0.26
mp-2480,OsSe2,158.0,106.0,0.23
mp-2513,As2Pt,137.0,83.0,0.25
mp-2525,PrAg,51.0,15.0,0.37
mp-2540,VTc,254.0,125.0,0.29
mp-2592,Si2Mo,207.0,177.0,0.17
mp-2596,NpN,145.0,80.0,0.27
mp-2597,InTe,84.0,15.0,0.42
mp-2649,Zr5Sb3,105.0,4.0,0.48
mp-2707,USb2,57.0,27.0,0.3
mp-27198,Cd(NO3)2,24.0,11.0,0.31
mp-27315,CaTiF6,50.0,25.0,0.29
mp-27579,Na4P2O7,46.0,24.0,0.28
mp-27636,Cs2SnI6,7.0,4.0,0.27
mp-27677,KCu4S3,47.0,19.0,0.32
mp-2772,ZrAl2,113.0,87.0,0.19
mp-27768,Co(BW)3,339.0,203.0,0.25
mp-2800,USi3,117.0,10.0,0.46
mp-28282,RbTiCl3,17.0,8.0,0.3
mp-28339,CaPPt,95.0,45.0,0.3
mp-28376,CuAuF5,28.0,12.0,0.31
mp-29025,Li5Br2N,27.0,16.0,0.25
mp-29151,Li5NCl2,37.0,27.0,0.2
mp-29209,Ba(MgBi)2,32.0,20.0,0.23
mp-29529,NaSnP,36.0,12.0,0.35
mp-29633,LiGePd2,121.0,26.0,0.4
mp-2967,La(CoB)2,367.0,206.0,0.26
mp-29826,ZnCN2,73.0,24.0,0.35
mp-29873,Rb2CdCl4,21.0,7.0,0.34
mp-30,Cu,145.0,51.0,0.34
mp-30040,BaCdSb2,33.0,23.0,0.22
mp-30139,BeBr2,1.0,2.0,-0.16
mp-30227,Rb2WCl6,10.0,4.0,0.31
mp-30374,DyInAu2,89.0,17.0,0.41
mp-30403,Li2PbAu,58.0,41.0,0.21
mp-30441,Be17Nb2,140.0,152.0,0.1
mp-30453,DyBiPt,89.0,41.0,0.3
mp-30635,Fe3Pd,163.0,23.0,0.43
mp-30683,ZrGa2,100.0,64.0,0.24
mp-30784,Mg2Zn11,67.0,33.0,0.29
mp-30845,SmPt3,161.0,67.0,0.32
mp-31011,Y2Si2Rh,106.0,63.0,0.25
mp-31038,CuSe2Cl,8.0,5.0,0.24
mp-31138,MnPd3,151.0,53.0,0.34
mp-31212,K2MgF4,47.0,25.0,0.27
mp-31256,U(SbO3)2,25.0,25.0,0.13
mp-313,YC2,113.0,40.0,0.34
mp-31456,HfSbRu,147.0,48.0,0.35
mp-31460,NbCoSb,156.0,58.0,0.33
mp-31516,Co(ReO4)2,23.0,9.0,0.32
mp-3158,Li2SbPt,81.0,28.0,0.34
mp-3201,Li2GaPd,67.0,26.0,0.33
mp-32548,BiO2,138.0,45.0,0.35
mp-33667,LiDyS2,54.0,35.0,0.23
mp-33880,Sr(GaTe2)2,33.0,15.0,0.3
mp-3534,Ge2Sb2Te5,23.0,13.0,0.26
mp-35417,Li3TaO4,99.0,92.0,0.15
mp-3595,ZnSiAs2,66.0,42.0,0.24
mp-3678,Tb(SiRu)2,146.0,80.0,0.27
mp-36800,MgTaN2,244.0,175.0,0.21
mp-37614,Al2NiO4,203.0,109.0,0.27
mp-3779,CrSiTe3,13.0,9.0,0.21
mp-3833,Mg(AlSi)2,64.0,33.0,0.28
mp-38970,Ga2Te3,22.0,15.0,0.22
mp-3934,Cu3PS4,79.0,36.0,0.3
mp-395,ZrAl3,103.0,83.0,0.18
mp-3953,CaCO3,76.0,32.0,0.31
mp-4189,Dy6FeSb2,60.0,35.0,0.25
mp-4248,YCoC2,167.0,95.0,0.26
mp-4391,MgSiO3,200.0,109.0,0.27
mp-4415,Ho(CoGe)2,127.0,71.0,0.27
mp-4481,Ca2SiO4,90.0,49.0,0.27
mp-4661,ScOF,141.0,60.0,0.31
mp-4666,CdSiP2,75.0,39.0,0.28
mp-4738,PrScGe,64.0,40.0,0.24
mp-4756,ZnSnSb2,40.0,23.0,0.26
mp-4864,CaMgSn,40.0,29.0,0.21
mp-4997,ZrGeS,119.0,77.0,0.23
mp-5042,YTiGe,87.0,49.0,0.26
mp-505297,NbSbRu,168.0,66.0,0.33
mp-510404,GdSe,90.0,37.0,0.32
mp-510417,WO3,63.0,48.0,0.19
mp-510430,Li13In3,23.0,17.0,0.2
mp-5111,YbCuGe,46.0,35.0,0.19
mp-5112,Pr(CoSi)2,118.0,85.0,0.21
mp-5157,Ca(PRu)2,101.0,79.0,0.19
mp-5259,RbAlF4,42.0,29.0,0.22
mp-541837,Bi2Se3,12.0,8.0,0.22
mp-55,Sn,48.0,13.0,0.38
mp-555434,As2O5,93.0,47.0,0.28
mp-555464,KRb2NiF6,35.0,9.0,0.38
mp-558137,AlBPbO4,67.0,46.0,0.22
mp-559044,CuCSN,47.0,17.0,0.34
mp-559092,ScF3,91.0,41.0,0.3
mp-560671,Rb2NaVF6,52.0,23.0,0.31
mp-561412,CaCO3,75.0,29.0,0.33
mp-562,Sb2Pt,104.0,54.0,0.28
mp-565,Sn2Rh,108.0,46.0,0.31
mp-567462,Sc3RhC4,178.0,117.0,0.23
mp-567504,CrCl3,16.0,6.0,0.32
mp-567505,SiC,214.0,187.0,0.16
mp-567724,TaSe2,34.0,12.0,0.34
mp-567907,P3N5,145.0,87.0,0.25
mp-567982,TaSn2,103.0,50.0,0.29
mp-568075,NbCoSn,102.0,-12.0,0.56
mp-568319,DyB6,174.0,62.0,0.34
mp-568516,K3Bi,32.0,20.0,0.24
mp-568631,Lu3Mn3Ga2Si,86.0,55.0,0.24
mp-568991,Hf2Al4C5,192.0,133.0,0.22
mp-568992,ZrIr,187.0,65.0,0.34
mp-569125,Mg3In,42.0,16.0,0.33
mp-569128,SiB3,156.0,129.0,0.18
mp-569167,Nb4N3,280.0,140.0,0.29
mp-569833,Zr2Ga,107.0,47.0,0.31
mp-570198,Ba(ZnAs)2,48.0,23.0,0.3
mp-570698,V3Au,180.0,41.0,0.4
mp-571342,TiGa2,107.0,69.0,0.23
mp-571554,PrAlSi2,77.0,41.0,0.27
mp-572,SmCd,52.0,18.0,0.35
mp-582,CeIr2,258.0,72.0,0.37
mp-582227,Eu(MnSb)2,39.0,19.0,0.29
mp-600125,HfInCu2,123.0,49.0,0.32
mp-602,Te2Mo,16.0,13.0,0.18
mp-606604,CsLi2F3,34.0,12.0,0.35
mp-619032,PbCN2,26.0,1.0,0.48
mp-621131,Ti3Ag,123.0,25.0,0.41
mp-6223,DyNi2B2C,194.0,71.0,0.34
mp-625487,Zn(HO)2,46.0,27.0,0.25
mp-625998,LiHO,48.0,19.0,0.33
mp-631334,LiTc2Pd,207.0,-21.0,0.55
mp-631387,SnRuW,127.0,3.0,0.49
mp-631404,CrIrRu,154.0,5.0,0.48
mp-631552,SrBiB,21.0,-50.0,6.02
mp-631571,Bi2OsAu,107.0,83.0,0.19
mp-632413,CoCl2,10.0,4.0,0.31
mp-6353,Y2Si4CN6,167.0,101.0,0.25
mp-639727,Cs,2.0,1.0,0.36
mp-640708,FeGe2,125.0,68.0,0.27
mp-6560,KSO2F,12.0,7.0,0.26
mp-6646,HoNi2B2C,175.0,74.0,0.31
mp-669347,KCuF3,75.0,28.0,0.34
mp-672259,AlFe2Mo,225.0,73.0,0.35
mp-675324,BaCO3,50.0,14.0,0.37
mp-675902,YCuSe2,62.0,28.0,0.3
mp-676058,V3NiS6,70.0,36.0,0.28
mp-676518,In3SbTe2,10.0,6.0,0.27
mp-6794,LaB2Rh2C,204.0,55.0,0.38
mp-684679,Sb6O13,119.0,71.0,0.25
mp-6879,Ba2CaCu2HgO6,79.0,34.0,0.31
mp-690542,Li4WO5,58.0,52.0,0.15
mp-690785,Na2H6Pt,23.0,16.0,0.23
mp-6916,Sm(BC)2,171.0,125.0,0.21
mp-697126,Ca4(H4Rh)3,78.0,41.0,0.28
mp-6973,CsNaS,14.0,10.0,0.21
mp-7003,CePPd,105.0,52.0,0.29
mp-7121,Dy(AlSi)2,78.0,41.0,0.28
mp-718,SnPd3,146.0,52.0,0.34
mp-7365,Sr(SiAu)2,94.0,39.0,0.32
mp-7376,Sr3(AlSn)2,36.0,25.0,0.22
mp-7430,Ca(CdSb)2,39.0,20.0,0.28
mp-744,HoP,88.0,62.0,0.22
mp-7478,RbTmO2,84.0,51.0,0.25
mp-752463,NbNO,178.0,60.0,0.35
mp-752685,ZrBiO4,97.0,41.0,0.32
mp-753371,LiCuS,34.0,6.0,0.42
mp-753693,Ho2Ge2O7,135.0,49.0,0.34
mp-753848,Li(CuO)3,84.0,40.0,0.3
mp-754010,ZnCu2O3,92.0,34.0,0.34
mp-754218,Tb2SeO2,84.0,25.0,0.36
mp-754978,CdCu2O3,73.0,25.0,0.35
mp-755342,LuGaO3,166.0,79.0,0.29
mp-755453,MnP4,130.0,86.0,0.23
mp-755472,BaCuO2,88.0,14.0,0.42
mp-755581,NaCeO2,67.0,38.0,0.26
mp-7557,Nb5SiSn2,162.0,83.0,0.28
mp-755714,SrEuO2,104.0,61.0,0.25
mp-755769,ZrO2,159.0,46.0,0.37
mp-760482,F2,2.0,1.0,0.24
mp-761556,MnCoO4,173.0,82.0,0.29
mp-761574,CoSnO3,152.0,57.0,0.33
mp-761716,MnFe2O3,152.0,61.0,0.32
mp-763353,Fe4O5F3,124.0,60.0,0.29
mp-7655,BaSi2,49.0,36.0,0.2
mp-767409,Li5SbS,28.0,28.0,0.13
mp-775127,Li4Fe3O8,94.0,41.0,0.31
mp-776475,Al2O3,216.0,127.0,0.25
mp-777667,LiV2O5,74.0,36.0,0.29
mp-781625,BaOsO3,168.0,73.0,0.31
mp-7829,MnNbSi,209.0,105.0,0.28
mp-7849,AlAsO4,24.0,19.0,0.18
mp-7922,CaPdF6,17.0,15.0,0.16
mp-8431,Ca(BRh)2,148.0,56.0,0.33
mp-8432,CaCuP,74.0,51.0,0.22
mp-8462,Hf3Al2,115.0,64.0,0.27
mp-861735,AcMgTl2,40.0,3.0,0.47
mp-861935,CaSnRh2,145.0,65.0,0.3
mp-862371,Sc2RuPt,147.0,61.0,0.32
mp-862553,Sc2BeRu,111.0,47.0,0.31
mp-862601,RhI2,60.0,26.0,0.31
mp-862632,LiCa2Al,29.0,19.0,0.22
mp-862694,Al2IrRh,208.0,96.0,0.3
mp-862699,ScTaOs2,235.0,122.0,0.28
mp-862704,ScZn2Pt,125.0,40.0,0.35
mp-862775,LiInRh2,154.0,44.0,0.37
mp-862820,PaSi3,124.0,69.0,0.27
mp-862861,Pa3Si,111.0,46.0,0.32
mp-862862,Pa3Sb,106.0,50.0,0.3
mp-862994,Pm2CdGe,60.0,19.0,0.36
mp-863732,Pm2PtRh,101.0,29.0,0.37
mp-863734,ErPaTc2,147.0,-7.0,0.52
mp-8642,Re,363.0,186.0,0.28
mp-864610,Nd2MgAl,49.0,27.0,0.27
mp-864764,Ta2FeOs,249.0,83.0,0.35
mp-864765,Na3HfF8,45.0,19.0,0.32
mp-864788,NbInRu2,208.0,95.0,0.3
mp-864789,Yb2SnHg,39.0,31.0,0.18
mp-864799,HoLuMg2,38.0,21.0,0.27
mp-864831,NbZnRh2,203.0,-66.0,0.68
mp-864919,MgTiRh2,163.0,77.0,0.3
mp-864989,Mn2AlRe,259.0,130.0,0.29
mp-865145,NaTl2Bi,27.0,7.0,0.39
mp-865165,HfScCo2,130.0,65.0,0.29
mp-865171,YbHg3,29.0,12.0,0.33
mp-865194,TmF3,150.0,38.0,0.38
mp-865273,TmUTc2,136.0,22.0,0.42
mp-8654,PrSiRu,78.0,46.0,0.26
mp-865434,LuZrRu2,157.0,71.0,0.3
mp-865450,ThGa3,74.0,43.0,0.26
mp-865504,YAlAg2,84.0,18.0,0.4
mp-865547,Pm2CuSi,76.0,28.0,0.33
mp-865679,TiSnPd2,146.0,-18.0,0.56
mp-865717,Ti2ReIr,236.0,117.0,0.29
mp-865739,YbCdAg2,44.0,15.0,0.35
mp-865801,LuPaTc2,116.0,42.0,0.34
mp-865803,Ti2MoPt,193.0,89.0,0.3
mp-865858,PaAu3,126.0,20.0,0.42
mp-865871,Li2ZnAu,46.0,5.0,0.45
mp-865876,Ti2TcOs,227.0,100.0,0.31
mp-865921,MgAlIr2,189.0,107.0,0.26
mp-865940,LiThAu2,84.0,-11.0,0.57
mp-865999,YbTlPd2,82.0,12.0,0.43
mp-866022,CdPt3,192.0,49.0,0.38
mp-866026,ErNbOs2,211.0,86.0,0.32
mp-866046,Ti3In,108.0,45.0,0.32
mp-866069,MgScRh2,128.0,58.0,0.3
mp-866075,MgTaIr2,215.0,185.0,0.17
mp-866153,TiAlRh2,193.0,-2.0,0.51
mp-866173,Y2RuRh,108.0,47.0,0.31
mp-866194,Li2MgCd,30.0,13.0,0.31
mp-866211,Lu2CdIn,58.0,24.0,0.32
mp-866213,TiTc2Mo,248.0,116.0,0.3
mp-866314,Ca5Al2(SiN4)2,126.0,74.0,0.25
mp-867130,SmHoMg2,35.0,21.0,0.25
mp-867149,Sr2CdSn,45.0,22.0,0.29
mp-867177,PrCdHg2,58.0,17.0,0.36
mp-867800,AcSe3,56.0,17.0,0.36
mp-867810,LiYHg2,78.0,13.0,0.42
mp-867870,SmAl3,69.0,43.0,0.24
mp-867985,SmPbAu2,75.0,17.0,0.39
mp-879,La3Te4,51.0,23.0,0.3
mp-881,NpSn3,68.0,82.0,0.07
mp-8973,NaSi2N3,185.0,116.0,0.24
mp-915,YCd,57.0,25.0,0.31
mp-9247,Ba(CuAs)2,57.0,27.0,0.29
mp-9306,Sr2ZnN2,66.0,35.0,0.27
mp-934,LiTl,31.0,16.0,0.28
mp-9517,SrTiN2,121.0,50.0,0.32
mp-9578,Ba3(AlSi)2,35.0,22.0,0.24
mp-961671,TiGePt,71.0,1.0,0.49
mp-961679,TaAlPt,161.0,-0.0,0.5
mp-961718,TiAsRh,118.0,-3.0,0.51
mp-962065,SrCaSn,29.0,23.0,0.19
mp-971631,GaP,75.0,33.0,0.31
mp-971661,Si,79.0,47.0,0.25
mp-971712,ZnCdS2,47.0,20.0,0.31
mp-9719,Na2LiAlP2,40.0,28.0,0.22
mp-971960,Zn3Os,153.0,-203.0,1.69
mp-972185,Tl3Hg,104.0,-9.0,0.55
mp-972257,LaTb3,32.0,19.0,0.25
mp-972396,Ti2MnRe,167.0,66.0,0.32
mp-972455,TmLuIn2,62.0,16.0,0.38
mp-972882,Sc2CdAg,76.0,25.0,0.35
mp-973092,ScCu3,106.0,36.0,0.35
mp-973750,LuTe2,61.0,21.0,0.34
mp-973771,Lu2MgHg,56.0,7.0,0.44
mp-973841,LiHo2Al,51.0,30.0,0.26
mp-973935,OsN2,210.0,117.0,0.26
mp-973960,KScO3,52.0,-3.0,0.53
mp-975207,RbSmO3,58.0,20.0,0.34
mp-975253,RbPr3,22.0,7.0,0.35
mp-975390,RbCa3,10.0,5.0,0.3
mp-975913,PrNbO3,180.0,29.0,0.42
mp-975972,PrLuMg2,36.0,22.0,0.25
mp-976017,Li3Co,26.0,11.0,0.31
mp-976055,Li3In,4.0,5.0,0.08
mp-976319,NaHo3,32.0,-1.0,0.51
mp-976446,MgMnO3,140.0,65.0,0.3
mp-976884,PrBiPd2,83.0,3.0,0.48
mp-977012,H6PbCBr3N,16.0,6.0,0.33
mp-977138,NaTc3,193.0,71.0,0.34
mp-977152,NpTiO3,154.0,58.0,0.33
mp-977362,ZnGaRh2,194.0,81.0,0.32
mp-977430,MgNbRu2,228.0,79.0,0.34
mp-977586,MgSc2In,43.0,38.0,0.16
mp-978273,Mg3Cd,40.0,15.0,0.33
mp-978294,Mg3Sn,37.0,25.0,0.22
mp-979044,Tm2CuAu,92.0,37.0,0.32
mp-979057,Sm2ZnAg,54.0,23.0,0.31
mp-981336,Zn3C,102.0,-11.0,0.56
mp-981458,YbTa,69.0,28.0,0.32
mp-982870,HfAlIr2,217.0,141.0,0.23
mp-983388,K3Hg,3.0,1.0,0.32
mp-983459,HfZr,101.0,42.0,0.32
mp-983509,Na3Cd,12.0,5.0,0.32
mp-983585,Al3Zn,75.0,0.0,0.5
mp-984744,Ca3Tl,14.0,11.0,0.19
mp-9850,DyP5,65.0,43.0,0.23
mp-985805,AlAg2,94.0,30.0,0.36
mp-988,Si3N4,234.0,120.0,0.28
mp-9888,Ir3Se8,84.0,55.0,0.23
mp-989585,Cs2KPbF6,115.0,13.0,0.45
mp-989608,Cs2NaAsCl6,21.0,9.0,0.32
mp-99,Er,44.0,30.0,0.23
mp-9948,V5Te4,50.0,30.0,0.25
mp-995191,BaTiO3,23.0,3.0,0.44
mp-996954,CuPtO2,142.0,14.0,0.45
mp-996990,BaAgO2,82.0,44.0,0.27
mp-9978,ErSe2,80.0,30.0,0.33
mp-998307,CsPdBr3,27.0,16.0,0.25
mp-999079,Ti2AlCu,107.0,40.0,0.33
mp-999204,ScAl3,94.0,64.0,0.22
mvc-12866,SbO2,37.0,-6.0,0.59
mvc-13133,Cu2SnSe4,31.0,9.0,0.37
mvc-14201,Ca3Sn2O7,129.0,63.0,0.29
mvc-15835,ZnWF6,101.0,31.0,0.36
mvc-5096,WO3,50.0,95.0,-0.08
mp-1001831,LiB,120.0,25.0,0.4
mp-1001916,HfN,197.0,87.0,0.31
mp-10044,BAs,128.0,124.0,0.13
mp-10056,UCo3B2,59.0,129.0,-0.13
mp-1007,DySb,59.0,36.0,0.25
mp-1007657,HfRu3,202.0,86.0,0.31
mp-1007761,HW,281.0,155.0,0.27
mp-1008278,Cr3Ni,216.0,79.0,0.34
mp-1008527,B2CN,324.0,261.0,0.18
mp-1008688,Ti2Sn,60.0,623.0,-0.66
mp-1008813,RbAgO,-0.0,-43.0,-0.96
mp-1008924,DySb,64.0,30.0,0.3
mp-1009127,MgO,143.0,-6.0,0.52
mp-1009657,CaN2,91.0,43.0,0.3
mp-1009832,TaC,225.0,81.0,0.34
mp-1011375,CeSe2,69.0,48.0,0.22
mp-10120,NdBPd3,128.0,-9.0,0.54
mp-1013555,Sr3AsN,57.0,40.0,0.21
mp-1016871,ZrHgO3,143.0,41.0,0.37
mp-1016932,MnZnO3,76.0,67.0,0.16
mp-1017507,TmAu,89.0,18.0,0.41
mp-1018060,GaCo2Ni,173.0,65.0,0.33
mp-1018083,CrCdTe2,40.0,14.0,0.34
mp-1018107,ZrTe2,14.0,13.0,0.15
mp-1018685,ErCuSn,70.0,46.0,0.23
mp-1018692,ErTe2,61.0,22.0,0.34
mp-1018743,LaNi3Rh2,144.0,53.0,0.34
mp-1019138,SmSbTe,58.0,28.0,0.29
mp-1019550,BeGeN2,191.0,144.0,0.2
mp-1019551,BaNa2Mg(PO4)2,74.0,47.0,0.24
mp-1022723,Ce2Cu(NO)2,146.0,60.0,0.32
mp-1024955,PrNiSb,82.0,35.0,0.31
mp-1025021,YbMgCu4,69.0,21.0,0.36
mp-1025140,USiSe,81.0,59.0,0.21
mp-1025177,Rb2CuF4,37.0,22.0,0.25
mp-1025293,InAsPd5,131.0,53.0,0.32
mp-1025449,TbInPt2,113.0,36.0,0.36
mp-1025550,Ti2GaN,159.0,109.0,0.22
mp-1025799,MoSe2,27.0,14.0,0.28
mp-1029359,CaHfN2,171.0,131.0,0.19
mp-1029784,Rb2CN2,26.0,10.0,0.33
mp-10623,ThSbRh,112.0,43.0,0.33
mp-10632,TlS,55.0,32.0,0.26
mp-10662,K2CO3,30.0,-17.0,0.84
mp-10678,AuSe,86.0,-13.0,0.58
mp-10714,TmRh3C,207.0,82.0,0.32
mp-108,U,133.0,42.0,0.36
mp-10849,AsPdSe,94.0,35.0,0.33
mp-10904,AlPt,184.0,74.0,0.32
mp-1093,ThGe,79.0,41.0,0.28
mp-11022,ScAgO2,123.0,39.0,0.36
mp-11038,Zr6Al2Fe,105.0,48.0,0.3
mp-1123,HgS,50.0,15.0,0.36
mp-11252,MnAu2,124.0,30.0,0.39
mp-1127,SmPt2,154.0,69.0,0.31
mp-11270,MnBe2,163.0,162.0,0.13
mp-11288,Ca3Hg2,30.0,11.0,0.33
mp-11342,GaSe,14.0,9.0,0.24
mp-11358,TaCo3,147.0,115.0,0.19
mp-11363,TbCu5,98.0,42.0,0.31
mp-11385,YFe5,105.0,68.0,0.23
mp-11486,Y2(Al3Co)3,110.0,76.0,0.22
mp-11492,LuNi2Sn,104.0,29.0,0.37
mp-11504,MnZn3,88.0,40.0,0.3
mp-11819,BaSnHg,29.0,20.0,0.21
mp-11917,Mg(BeN)2,185.0,166.0,0.15
mp-12063,Ce(AgGe)2,76.0,38.0,0.29
mp-12070,CuAs,102.0,26.0,0.38
mp-12109,ZrRe2,251.0,66.0,0.38
mp-1215,Ti2O,184.0,106.0,0.26
mp-12521,SrNi3Ge2,89.0,32.0,0.34
mp-12581,CdTe,29.0,10.0,0.35
mp-12623,BaPdF4,53.0,15.0,0.37
mp-12699,Ca3Au4,51.0,17.0,0.35
mp-12742,MgPd3,130.0,39.0,0.36
mp-12743,CrTe4Au,27.0,23.0,0.17
mp-12855,Cu2HgGeSe4,44.0,22.0,0.28
mp-12910,GeS,27.0,15.0,0.27
mp-13074,LuNiPb,89.0,45.0,0.29
mp-13136,WC,365.0,153.0,0.32
mp-13156,HfAg,117.0,50.0,0.31
mp-13171,YMgCu,60.0,22.0,0.34
mp-1329,LaTe2,49.0,22.0,0.3
mp-13303,ErSnAu,76.0,42.0,0.27
mp-13463,FeNiPt2,210.0,93.0,0.31
mp-13498,Tb2Mg,39.0,20.0,0.28
mp-1373,Nb3Ge,172.0,44.0,0.38
mp-139,Sr,11.0,6.0,0.26
mp-13920,Ba(ZnSn)2,44.0,23.0,0.28
mp-14549,CuO,178.0,32.0,0.41
mp-1473,Fe7W6,270.0,132.0,0.29
mp-14790,Ge(Te2As)2,23.0,15.0,0.23
mp-14791,Ge2Te5As2,48.0,36.0,0.2
mp-15053,Y(PdO2)2,154.0,58.0,0.33
mp-1542,YB2,164.0,151.0,0.15
mp-15781,KLaS2,37.0,22.0,0.25
mp-15820,LiHoGe,55.0,48.0,0.16
mp-159,Nd,34.0,19.0,0.26
mp-16250,Th(SiAu)2,103.0,29.0,0.37
mp-16496,Al(CuRe)2,211.0,93.0,0.31
mp-16828,Li3B7O12,63.0,37.0,0.25
mp-16860,Mg13Ir3,60.0,28.0,0.3
mp-1695,Y2C3,120.0,62.0,0.28
mp-1699,AlCr2,186.0,103.0,0.27
mp-17524,GeAs2,15.0,12.0,0.19
mp-1811,HgTe,65.0,16.0,0.39
mp-1841,SiIr3,299.0,119.0,0.32
mp-18721,Mn2P2O7,112.0,49.0,0.31
mp-18939,LiCo(CO)4,48.0,5.0,0.45
mp-19019,NiMoO4,147.0,57.0,0.33
mp-19146,CrPbO4,33.0,18.0,0.28
mp-19378,CrAgO2,140.0,45.0,0.35
mp-19390,WO3,228.0,125.0,0.27
mp-19399,Cr2O3,203.0,113.0,0.27
mp-19414,K3CrO4,38.0,13.0,0.34
mp-19421,FeWO4,141.0,54.0,0.33
mp-1977,NdSn3,56.0,11.0,0.41
mp-19789,Mn(BW)2,306.0,187.0,0.25
mp-1979,HoPd3,131.0,51.0,0.33
mp-19830,ErN,171.0,132.0,0.19
mp-19880,FeTe2,94.0,74.0,0.19
mp-1994,HfB2,251.0,242.0,0.13
mp-2,Pd,160.0,43.0,0.38
mp-20151,Eu(AlGe)2,57.0,36.0,0.24
mp-20237,CoNiSn,161.0,69.0,0.31
mp-20245,CeFeSi,88.0,32.0,0.34
mp-203,NiTe,101.0,34.0,0.35
mp-2030,RuS2,131.0,121.0,0.15
mp-2049,ZrMo2,192.0,59.0,0.36
mp-20612,NaMnAs,41.0,22.0,0.28
mp-20740,Tl4Te3Pb,25.0,13.0,0.28
mp-20761,LaCoGe,63.0,36.0,0.26
mp-20793,Ga2FeS4,19.0,12.0,0.25
mp-20821,NpGa3,62.0,45.0,0.21
mp-2083,Sn2Ir,110.0,36.0,0.35
mp-20832,Zn(InTe2)2,24.0,15.0,0.24
mp-2091,V3B2,256.0,199.0,0.19
mp-20930,InCuO2,121.0,37.0,0.36
mp-21028,Er3TlC,41.0,12.0,0.36
mp-21035,Sc3PbC,97.0,76.0,0.19
mp-2116,ZrMn2,180.0,49.0,0.38
mp-21164,SrGePt,68.0,19.0,0.37
mp-21199,Na3(GePt)4,83.0,26.0,0.36
mp-21313,Mn3GaC,208.0,115.0,0.27
mp-21321,MnSe2,77.0,27.0,0.35
mp-21336,TaFeP,264.0,143.0,0.27
mp-21345,LaGe,64.0,38.0,0.25
mp-21425,UNiSn,109.0,51.0,0.3
mp-2183,ThSe,98.0,25.0,0.38
mp-21851,MnSiIr,162.0,77.0,0.3
mp-2199,Fe3Si,212.0,93.0,0.31
mp-22052,Zn(InS2)2,66.0,28.0,0.31
mp-22255,RbInTe2,24.0,8.0,0.35
mp-22260,Y(MnSn)6,110.0,71.0,0.23
mp-22323,In2O3,151.0,60.0,0.32
mp-22389,Mn3Sn,89.0,55.0,0.25
mp-22390,SrRuO3,166.0,70.0,0.31
mp-22541,MnNiSb,116.0,6.0,0.47
mp-22700,V3Se4,80.0,54.0,0.22
mp-22712,YPd2Pb,95.0,25.0,0.38
mp-22786,ThNiSn,98.0,48.0,0.29
mp-22888,CaBr2,21.0,10.0,0.3
mp-23037,CsPbCl3,21.0,9.0,0.31
mp-23121,Sr5P3ClO12,66.0,37.0,0.27
mp-23153,I,5.0,4.0,0.21
mp-23173,HgI2,3.0,2.0,0.23
mp-23188,In2Bi,41.0,8.0,0.41
mp-23263,LaBr3,26.0,13.0,0.28
mp-23295,RbCl,15.0,8.0,0.28
mp-23309,ScCl3,7.0,4.0,0.26
mp-23353,Cu2HgI4,14.0,8.0,0.24
mp-2347,NiAs,112.0,11.0,0.45
mp-24082,Ta2H,202.0,66.0,0.35
mp-2423,US,103.0,-17.0,0.59
mp-24291,ThH2,89.0,-4.0,0.52
mp-24722,HRh,217.0,67.0,0.36
mp-2493,CeN,146.0,76.0,0.28
mp-2512,AsPd5,151.0,44.0,0.37
mp-2643,Ti3Cu4,132.0,61.0,0.3
mp-2667,CsAu,10.0,6.0,0.25
mp-27277,PCl3O,3.0,1.0,0.27
mp-27421,RbBiF6,12.0,6.0,0.27
mp-27831,Rb2ZrCl6,9.0,5.0,0.29
mp-27954,CuN3,10.0,5.0,0.29
mp-28006,Ca(Cu2As)2,77.0,28.0,0.34
mp-28232,MgTi2O5,162.0,71.0,0.31
mp-28240,CSO,5.0,2.0,0.35
mp-28273,K3CuO2,28.0,13.0,0.3
mp-28357,NbHg3F6,23.0,3.0,0.44
mp-2839,CeC2,101.0,34.0,0.35
mp-28479,Sc2CCl2,20.0,14.0,0.21
mp-28549,Li8SiO6,81.0,58.0,0.21
mp-28614,NaBPt3,155.0,36.0,0.39
mp-28897,BIrPd,236.0,73.0,0.36
mp-2961,MgSiP2,72.0,34.0,0.29
mp-29674,Al2B2Ru3,230.0,103.0,0.31
mp-29763,RbMnBr3,17.0,0.0,0.5
mp-3,Cs,2.0,-2.0,1.82
mp-3015,HoInCu,66.0,46.0,0.22
mp-30209,LiBH4,16.0,6.0,0.32
mp-30247,Mg(HO)2,46.0,34.0,0.2
mp-30365,BeAu,148.0,41.0,0.37
mp-30395,ScInAu2,100.0,23.0,0.39
mp-30423,VAu2,126.0,30.0,0.39
mp-30498,TbCd3,54.0,23.0,0.31
mp-30530,TlClO4,53.0,7.0,0.43
mp-30621,DySi2Rh3,176.0,100.0,0.26
mp-30625,Dy2Tl,52.0,23.0,0.31
mp-30738,LiIr3,243.0,112.0,0.3
mp-30764,LiPt2,136.0,70.0,0.28
mp-30800,NdZn2,61.0,23.0,0.33
mp-30858,ZrPt3,228.0,103.0,0.3
mp-30883,V4Zn5,125.0,56.0,0.31
mp-31170,Cd2AgAu,105.0,2.0,0.49
mp-31324,Li2In,24.0,25.0,0.12
mp-31339,ScInPd2,118.0,36.0,0.36
mp-31454,TaSbRu,175.0,70.0,0.32
mp-32887,HfTe2,15.0,12.0,0.18
mp-33104,Sm2O,85.0,43.0,0.28
mp-3363,Sc2Ni2Sn,102.0,35.0,0.35